LAMMPS data file via write_data, version 23 Jun 2022, timestep = 1000000

216 atoms
1 atom types

-0.026567063366379103 16.318667063366124 xlo xhi
-0.026567063366379103 16.318667063366124 ylo yhi
-0.026567063366379103 16.318667063366124 zlo zhi

Masses

1 28.0855

Atoms # full

5 0 1 0 1.3741967494818168 1.3167640130140348 1.4890000473523894 0 0 0
7 0 1 0 3.97846810341051 1.6390515519342788 4.0269617345900945 0 0 0
1 0 1 0 -0.016949074226885723 0.03897470657559764 0.23006741268524947 0 0 0
4 0 1 0 2.469367557854407 2.9246380055318317 0.11868413204193518 0 0 0
3 0 1 0 2.8723760652542363 0.042191762688389645 2.6287093270761472 0 0 0
8 0 1 0 4.123664395297218 4.025507780983359 1.1858094537063502 0 0 0
10 0 1 0 5.601226297575558 2.8961044987319475 2.740103784777543 0 0 0
11 0 1 0 6.901184858290978 1.5738701488059763 1.1779445989263486 0 0 0
12 0 1 0 7.005858899713152 3.9605080563736994 3.9945142243320095 0 0 0
109 0 1 0 7.813218567591885 0.4780473357675323 2.791703010921645 0 0 0
15 0 1 0 1.4978858270328608 6.728762855355144 1.2842480162195828 0 0 0
6 0 1 0 1.614468049272013 4.392097624790526 4.302615015336196 0 0 0
14 0 1 0 2.82796897906465 5.390110791712509 2.547411435519107 0 0 0
55 0 1 0 0.104661375385892 8.015824099152939 2.9132215492117415 0 0 0
13 0 1 0 0.030733039833791054 5.494843186531064 0.070427540182596 0 0 0
16 0 1 0 4.082671167937391 6.581601730918241 4.3147281188077296 0 0 0
35 0 1 0 5.726510224645823 5.40881196212374 5.373126095617896 0 0 0
18 0 1 0 6.911662304254901 6.925670386345715 1.2881711503154254 0 0 0
59 0 1 0 5.508546338364052 8.08480458439166 2.669928319769469 0 0 0
23 0 1 0 1.5596581580328597 1.4801365059130283 6.976455608725591 0 0 0
25 0 1 0 3.726114009371112 1.3699943259014788 9.840848885074754 0 0 0
19 0 1 0 0.07879510993755953 0.00234476259965662 5.504445339657395 0 0 0
20 0 1 0 0.007034878531051006 2.794336724034539 8.441198156675553 0 0 0
22 0 1 0 2.769336802574613 2.9387577659709883 5.4616871301523915 0 0 0
21 0 1 0 2.675526214408755 0.10850572693747067 8.38162724790233 0 0 0
28 0 1 0 5.227261736945055 2.366428789720705 8.301626821067734 0 0 0
29 0 1 0 6.5553592438457 1.0757753450055056 6.618210012345361 0 0 0
30 0 1 0 6.541896240288172 3.987797004719493 9.656548520671972 0 0 0
128 0 1 0 8.131697252920382 2.645397950342999 5.603522778327049 0 0 0
45 0 1 0 5.279206001796065 0.02773856630150011 10.726102432415283 0 0 0
24 0 1 0 1.2184275709811252 4.292941762573774 9.737370513038552 0 0 0
32 0 1 0 2.6558484238451334 5.255854480382868 7.934155512424339 0 0 0
33 0 1 0 1.5080200297669348 6.585649366355294 6.850162688089744 0 0 0
34 0 1 0 3.9084328124843606 6.698887673495361 9.522259176060112 0 0 0
31 0 1 0 0.005753731221642247 5.614340939662311 5.560320344172637 0 0 0
26 0 1 0 4.37620525314222 4.108374652999063 6.886655474522624 0 0 0
77 0 1 0 5.648390327315226 7.946580279726089 8.056571131819561 0 0 0
36 0 1 0 7.031103180761152 6.610897342456373 6.617909601969451 0 0 0
41 0 1 0 1.150230435935919 1.3309780206748512 12.349836718051277 0 0 0
42 0 1 0 0.9815341417653292 3.8448241801969996 15.066475412755521 0 0 0
43 0 1 0 3.7264923497551425 1.6402122395941467 15.075110182635886 0 0 0
39 0 1 0 2.6275914248648093 0.0907330521957252 13.777471355649062 0 0 0
40 0 1 0 2.505228417996869 2.770889433906087 11.078729937130703 0 0 0
46 0 1 0 5.279902673696165 2.757541659852965 13.91886088625266 0 0 0
47 0 1 0 6.662906349711716 1.2883587871226625 12.231027040644818 0 0 0
9 0 1 0 5.15120910434057 0.08608742463151678 16.239909926016825 0 0 -1
51 0 1 0 1.0238667955529857 6.485657336509958 12.399068288519189 0 0 0
52 0 1 0 3.886625244033443 6.850909126628829 14.79357781607466 0 0 0
50 0 1 0 2.616729724895993 5.175823836763411 13.78043793173189 0 0 0
92 0 1 0 2.4204073157251838 7.889603940971039 11.087131583675703 0 0 0
53 0 1 0 5.372322295034414 5.528712899772506 11.030433399080438 0 0 0
48 0 1 0 6.694726460066874 4.185459559855772 14.998485926297626 0 0 0
44 0 1 0 4.06259251466806 4.107434553693162 12.412323815316327 0 0 0
54 0 1 0 6.806864180262751 6.631134524547271 12.432819504653509 0 0 0
17 0 1 0 5.411672875569651 5.7508901523807125 16.299806694800246 0 0 -1
57 0 1 0 1.4644052754679233 9.453020951840301 4.168162635441222 0 0 0
63 0 1 0 2.666385047650719 10.700240779340014 2.821667793703399 0 0 0
67 0 1 0 4.034976794734093 12.178010785578573 4.191703927578437 0 0 0
58 0 1 0 3.902795334708894 9.316531563835674 1.4051889298969302 0 0 0
79 0 1 0 0.16000296219152224 10.809205590567046 5.328550458868638 0 0 0
61 0 1 0 0.15544707614587425 11.067851546081977 0.25378281276839587 0 0 0
71 0 1 0 6.521633560288597 12.183645728054659 1.0901463172633175 0 0 0
60 0 1 0 6.705306355211891 9.526701659960622 4.196553761039713 0 0 0
163 0 1 0 8.112169565183121 8.353145982243268 0.10970274680397196 0 0 0
66 0 1 0 1.5805887947349504 14.986146950637126 4.23809898507135 0 0 0
65 0 1 0 1.480742058742359 12.350193806534913 1.5785219941567976 0 0 0
62 0 1 0 0.027646284034841612 13.63203597610844 2.773659023765727 0 0 0
68 0 1 0 4.0635041970075605 14.911793034844376 1.0858069034280748 0 0 0
188 0 1 0 8.113190977391747 13.612119014857925 5.4175379406244435 0 0 0
72 0 1 0 6.821667060268486 15.026336774475334 4.007993268391056 0 0 0
70 0 1 0 5.314998258084668 13.562792461654212 2.5703155446793526 0 0 0
27 0 1 0 5.083957353534587 16.252660545822017 5.158214159524477 0 -1 0
75 0 1 0 1.49852123882934 9.490824930149882 9.548205566473243 0 0 0
81 0 1 0 2.7500839958615693 11.169108648590313 8.292036390809766 0 0 0
73 0 1 0 0.0719541170985948 8.24464613146364 8.203001999937873 0 0 0
74 0 1 0 2.7974261232819377 8.161905988620777 5.538050614525983 0 0 0
97 0 1 0 0.14917241690711205 10.985071709532889 10.66023829345013 0 0 0
76 0 1 0 4.116129157998229 9.553369693559148 6.888100831708377 0 0 0
78 0 1 0 6.982653458280529 9.207030427268329 9.540694648727111 0 0 0
87 0 1 0 5.647516643555405 10.928717849125585 5.715509352733427 0 0 0
82 0 1 0 3.102198751229713 13.822816748779564 5.643134891014262 0 0 0
83 0 1 0 1.2683840147029677 12.351251112783658 6.712023439727147 0 0 0
84 0 1 0 1.1046051908497927 15.027167990125221 9.31152922935529 0 0 0
100 0 1 0 2.5269509201895124 13.778932245484928 10.86190699635393 0 0 0
127 0 1 0 8.026769318170896 16.133798202141694 8.17745125847671 0 -1 0
85 0 1 0 4.090934472999858 12.292803766099702 9.751257871574873 0 0 0
88 0 1 0 5.388498751753938 13.649097596540805 8.309341019857786 0 0 0
86 0 1 0 4.244721694563339 15.143285281466124 7.093250267611539 0 0 0
90 0 1 0 6.810695445371336 14.973105190335712 9.71974968410746 0 0 0
89 0 1 0 7.047070620396465 12.294040164272603 7.0660697087348305 0 0 0
93 0 1 0 1.2944511950039397 9.537295529614795 14.923881127433114 0 0 0
99 0 1 0 2.4820317937405934 10.698380917851647 13.490955762063676 0 0 0
94 0 1 0 3.9874519036578273 9.289927206527972 12.320573694912099 0 0 0
103 0 1 0 3.925920595403385 12.212790950520963 14.577064361331974 0 0 0
56 0 1 0 2.627203644604227 8.177134076628672 16.29124460404335 0 0 -1
96 0 1 0 6.852946554662311 9.585984728785897 14.805537103053998 0 0 0
107 0 1 0 6.813923996405724 11.935055193803333 12.089587642282012 0 0 0
95 0 1 0 5.625725713126803 8.223946122990112 13.669633032549704 0 0 0
105 0 1 0 5.532717276410247 10.60429666375414 10.919398299663749 0 0 0
69 0 1 0 5.043401300176796 10.800134776123263 16.084695276372816 0 0 -1
104 0 1 0 3.780810875612364 15.181378698072248 12.155472326726395 0 0 0
101 0 1 0 1.0301723221156525 12.30551944042403 12.174316623611572 0 0 0
102 0 1 0 1.3237763717215407 14.938711239014216 15.067310084501285 0 0 0
98 0 1 0 0.016485889231179066 13.670617427562627 13.834174259649352 0 0 0
64 0 1 0 2.6230686480135454 13.408301545829817 16.114142609300806 0 0 -1
106 0 1 0 5.439461922089113 13.708114405797273 13.343329760953539 0 0 0
108 0 1 0 6.777987528029293 15.057065654871195 14.910253480176905 0 0 0
170 0 1 0 7.860113961966838 13.762961718047256 16.312396289371605 0 0 -1
206 0 1 0 8.130387802076255 13.551200009323981 10.92509098629995 0 0 0
111 0 1 0 9.410952927170014 1.5950134846038544 3.9097647885754454 0 0 0
114 0 1 0 11.005507010758185 2.7451116996500016 2.5271736938152953 0 0 0
131 0 1 0 10.597703917401587 0.03776914627799382 5.247695352650299 0 0 0
115 0 1 0 13.530672550493342 0.02023306628960299 2.9591030192458914 0 0 0
117 0 1 0 12.399579557113618 1.1354978358347727 1.1098236544907267 0 0 0
119 0 1 0 14.959952321246703 1.4913757497303541 4.1460595662665325 0 0 0
120 0 1 0 14.912228787218986 3.978985171192655 1.300457738651679 0 0 0
2 0 1 0 16.298253928819243 3.037459607293289 2.8238423786963334 -1 0 0
121 0 1 0 8.259277222261105 5.220804021937728 2.4407852589398953 0 0 0
112 0 1 0 9.586462335535867 4.156378044454795 1.0804977358743328 0 0 0
122 0 1 0 9.535583608950011 6.827845215767347 3.8148532713020438 0 0 0
125 0 1 0 12.158004236441311 6.701795073334716 1.3870116644173247 0 0 0
141 0 1 0 10.886830791076036 5.768403870740877 5.366955437549891 0 0 0
124 0 1 0 13.678928832688511 5.382629555044847 2.588707029293503 0 0 0
118 0 1 0 12.2743917183125 4.15937627003296 4.0186829246293065 0 0 0
126 0 1 0 14.954401915361903 6.717632453916243 4.195899942467409 0 0 0
166 0 1 0 13.595469425699504 8.133993050640015 0.08744448772551203 0 0 0
129 0 1 0 9.417544582848862 1.2289241640589115 9.602622911954747 0 0 0
132 0 1 0 10.775839399150575 2.8316692930620504 8.292851868577443 0 0 0
135 0 1 0 12.193403887294263 1.0227017833978183 6.878000318367938 0 0 0
146 0 1 0 8.161176017933014 2.806915182575466 10.861522014536419 0 0 0
137 0 1 0 14.844950549988797 1.1630978638023644 9.4225626924744 0 0 0
152 0 1 0 13.373678276306496 2.671838864102259 10.72168942040502 0 0 0
134 0 1 0 13.457524651538963 2.6854345460610833 5.500679741473672 0 0 0
140 0 1 0 9.552292751614406 6.355807422167811 9.562112703330127 0 0 0
136 0 1 0 12.167935372894595 4.181838430731275 9.307677068719991 0 0 0
143 0 1 0 12.175441966349293 6.914467052437268 6.910956591908047 0 0 0
130 0 1 0 9.489994211907733 4.128384759208618 6.751204836186814 0 0 0
139 0 1 0 8.14714608330672 5.269994315405477 8.326721673856008 0 0 0
183 0 1 0 10.930954633639322 8.034490416929236 8.257411504452975 0 0 0
138 0 1 0 14.94228464437545 4.1585112850189 6.869021081119481 0 0 0
144 0 1 0 14.81911317022772 6.86117099848815 9.540053888810991 0 0 0
142 0 1 0 13.54402543608228 5.589655169343747 8.134600465058037 0 0 0
147 0 1 0 9.781388687880183 1.2353056684216879 14.746896817364126 0 0 0
150 0 1 0 11.081412878084477 2.4980522333881705 13.40354540436749 0 0 0
154 0 1 0 12.098168204812866 4.0012442055776845 14.957318553771819 0 0 0
110 0 1 0 8.547167228120536 2.860096367967533 15.849866045021981 0 0 -1
145 0 1 0 8.169602163342995 0.08101376759519496 13.614302522582667 0 0 0
153 0 1 0 12.243457990495935 1.2478046803939924 12.008993658605911 0 0 0
155 0 1 0 14.897256464762311 0.9251248717040825 14.893891590402133 0 0 0
156 0 1 0 14.682407925031757 3.9486385445163092 12.402675757097702 0 0 0
38 0 1 0 15.869570763194888 2.517520482077185 13.610607908807744 -1 0 0
116 0 1 0 13.808334111818645 2.743601885134633 16.19374707769808 0 0 -1
148 0 1 0 9.839034520502913 4.132246197073945 12.326085950767336 0 0 0
158 0 1 0 9.501944845857519 6.94658509311663 14.936344963707075 0 0 0
157 0 1 0 8.35155482254919 5.276451035578709 13.523540415754159 0 0 0
123 0 1 0 10.843705490188519 5.511515631792678 16.101005856198444 0 0 -1
159 0 1 0 11.18700066463639 5.399867873582188 10.883555306113651 0 0 0
199 0 1 0 8.208807122435028 7.661611828493671 11.078419966915975 0 0 0
161 0 1 0 12.374425856271186 6.857944692696743 12.582374811155752 0 0 0
162 0 1 0 14.91435422803248 6.998896355742672 15.07770267477584 0 0 0
160 0 1 0 13.58242712339271 5.4278072969478846 13.915703790162603 0 0 0
202 0 1 0 13.348057585163348 8.083479091493786 10.947029016056494 0 0 0
49 0 1 0 15.870435908423717 5.3376544305340285 10.871166049993272 -1 0 0
91 0 1 0 16.297731630650944 8.005299646003373 13.574341307261248 -1 0 0
164 0 1 0 9.642342671915607 9.594857626688325 1.2160232747872084 0 0 0
173 0 1 0 10.7581707136861 11.111515654939804 0.044736073058560075 0 0 0
165 0 1 0 10.885477745439669 8.367177432941386 2.5616115329361486 0 0 0
181 0 1 0 8.284938077662854 8.168935597519676 5.329718232680315 0 0 0
169 0 1 0 8.27129156995187 10.878157739798741 2.4113610271723056 0 0 0
191 0 1 0 10.701401712593572 10.922562980130717 5.344451967633827 0 0 0
167 0 1 0 12.470231018372075 9.557098248369693 4.0054083582606905 0 0 0
168 0 1 0 15.158257093810436 9.52309394047057 1.3568220932345143 0 0 0
175 0 1 0 13.645519364530443 11.14580541287532 2.6970874578093533 0 0 0
184 0 1 0 13.76773562681559 8.150484470224423 5.318540836168503 0 0 0
171 0 1 0 9.428227120319944 12.268816133447643 3.9277060892995785 0 0 0
178 0 1 0 11.986907106712446 14.914189728194023 3.9599465590099325 0 0 0
174 0 1 0 10.641484672740804 13.640936956725415 2.571011860283496 0 0 0
172 0 1 0 9.156472952269366 15.167887462621188 1.481109882127771 0 0 0
177 0 1 0 12.388571669336287 12.440733278882503 1.334047186378199 0 0 0
179 0 1 0 15.065856846023754 12.300088339711678 4.044081192392139 0 0 0
180 0 1 0 14.9897836491242 15.225448789656172 1.6051430524643804 0 0 0
194 0 1 0 13.451237717634642 13.509884785886143 5.272593153935263 0 0 0
176 0 1 0 13.940638618289114 13.654858815468824 0.19411168454266184 0 0 0
182 0 1 0 9.578862083554839 9.60042553685838 6.7597945922920015 0 0 0
189 0 1 0 9.343130100040447 12.163128204240808 9.355785978329264 0 0 0
185 0 1 0 12.058656141501986 9.519876897058593 9.437870756641807 0 0 0
209 0 1 0 10.584889625248799 10.782244362900926 10.75540275278046 0 0 0
187 0 1 0 8.159714118354149 10.7263934635738 8.159481267783969 0 0 0
186 0 1 0 15.197456037084521 9.487400863506501 6.530463904388513 0 0 0
193 0 1 0 13.607797287331453 10.590190444594365 7.825560806825053 0 0 0
197 0 1 0 15.024882735580102 11.977342754008447 9.127906260072445 0 0 0
195 0 1 0 12.353196806271383 11.974525933590733 6.651405353829836 0 0 0
196 0 1 0 12.198992925143267 14.80268631001523 9.406070303691846 0 0 0
190 0 1 0 9.21449224286762 15.076241410323199 6.644580466743059 0 0 0
192 0 1 0 10.937709588290181 13.660710362791491 7.774840170874715 0 0 0
149 0 1 0 10.794029179689645 16.21654972627276 10.774569848269723 0 -1 0
80 0 1 0 16.298814714803928 13.497441712201343 8.02644205366474 -1 0 0
133 0 1 0 13.547110837347999 16.069970364816236 8.216048313013829 0 -1 0
198 0 1 0 14.889806157687282 14.979862927730919 6.580149649873838 0 0 0
212 0 1 0 13.637591753935537 13.345883849850651 10.665332361503438 0 0 0
37 0 1 0 16.2803011370924 16.216733492713995 10.792114796265786 -1 -1 0
200 0 1 0 9.540280286113678 9.293306452513534 12.099004250565233 0 0 0
203 0 1 0 12.110885074373902 9.645340808075934 15.130337522898744 0 0 0
205 0 1 0 8.318687605010993 10.911905287077069 13.508042830582157 0 0 0
201 0 1 0 11.01053105587556 8.370640839762308 13.656926339665523 0 0 0
204 0 1 0 15.141914307168358 9.642264010120913 12.08767671465869 0 0 0
211 0 1 0 13.831105481289253 10.86155907874641 13.708501035578344 0 0 0
213 0 1 0 12.446809586168476 11.769419804306585 11.965054968423564 0 0 0
207 0 1 0 9.70695516237601 12.4434601001779 14.69867673258463 0 0 0
113 0 1 0 10.890885211366756 15.920515527790077 16.151717763026802 0 -1 -1
208 0 1 0 9.570087651083885 15.00516261175863 12.230700363672758 0 0 0
210 0 1 0 11.272434113408188 13.443919190007849 13.290436517479954 0 0 0
214 0 1 0 12.460353528078414 14.61654688113834 14.954793111044927 0 0 0
216 0 1 0 14.923947327282885 14.746095655837708 12.040457595493754 0 0 0
215 0 1 0 15.199403924431952 12.306038822528 15.076232803392319 0 0 0
151 0 1 0 13.494653358894409 15.914649010371694 13.45780689935209 0 -1 0

Velocities

5 1.4912370148221485 1.0574602772916761 -1.3756926276426733
7 13.576479825991413 4.318644158472238 -3.509336208990609
1 5.110614503314402 -1.1749259395149645 -2.497007675840903
4 -3.1793104062194946 8.222518130326756 -6.648470621855586
3 -5.0933377883993485 2.392806565732137 13.577795471059895
8 10.414600975590913 7.147540389126843 -0.46558690719872914
10 4.6777989390823524 -7.446059261009563 -7.588350870094683
11 -1.1270739163198946 -11.676849945739546 -4.0818163533161
12 3.9639351199522572 -9.807895618792438 5.7480039664712885
109 -4.2558819535279575 -4.069007969952596 4.118778447982085
15 10.10558128634953 0.920987121912463 -10.100326327463996
6 -3.715720061665992 7.916211338313651 6.77446187754106
14 -3.9882581332986624 -11.970500460902409 -4.355567035761052
55 5.601896471188001 3.501913678089792 -10.894912311460812
13 -0.34946013003488585 -0.3420450430416475 4.386706269474427
16 1.2110049653409942 0.38783667413001993 5.730737953346852
35 3.4984786968532884 -4.411927430736941 5.250077132610167
18 -0.5031762815511343 -9.025560367292348 -4.524348730896338
59 2.8700310974563585 11.855618530120385 0.8962457624013168
23 -2.6661172075035857 4.547391414868948 -10.304969396718795
25 1.062472158401777 5.732650295764249 -1.8640919930650217
19 3.609253168038366 -1.901149255881027 1.6425453462811166
20 -6.58672482037909 8.047280881975764 4.735846230208126
22 3.366180161424773 0.6311041802576676 -10.30737272181699
21 -3.0611268123187614 -6.192033702229605 12.819615457877882
28 2.0416480714163825 7.105295322787554 -4.063150546276087
29 3.7715000052307803 1.8693919611395673 -1.32873770573842
30 -5.9692711193360335 6.932823595917432 0.43841457062694944
128 -13.63821609282545 2.764593613308688 -5.74792942849707
45 -1.3047899697664629 2.550275633243562 -2.0479837685681526
24 12.562122940579597 -8.5191100361003 12.527009010918123
32 -7.71016366797595 11.483406999031168 1.5146356593334438
33 -3.960709102955571 8.523628623429502 -12.236831351792773
34 -10.279118262159932 3.04856704457466 -7.0988625750772965
31 -2.861957638029665 -9.092545514661323 -0.38867057405372507
26 -2.7584193040844145 1.333638633877595 1.7711964653007473
77 8.775056654830783 -10.316826750359105 3.500501338588202
36 -4.7046154147293056 -0.952832018203239 -3.0253341256896986
41 -2.587521640970097 -3.9884460892070357 1.5754643516001126
42 -6.086416744103743 -15.36861552061383 9.18245792320718
43 -0.7150130025367654 22.29609063358267 2.4650169525141554
39 -5.739465391081688 -6.87279275265265 5.759536092114127
40 -17.427378546636753 8.234820173454029 -11.036733976913784
46 2.5803992268226437 -8.17261297192814 -0.3319210641551287
47 8.692207368448983 -1.6173476450004505 0.2667422658674845
9 -6.807232059553105 7.0807668877991015 3.514413172339414
51 12.379228952548607 -7.452074150908979 4.019146656412447
52 2.44356592736126 4.486927100698349 13.955282683885608
50 15.8690960876778 6.363302724469698 -3.74598453849083
92 0.5401871514417413 -5.797056102259777 9.220428205916097
53 1.8270188081712029 12.64473556029527 -6.336863048746599
48 2.6647444394839064 -4.287635931450297 8.1030444420617
44 10.252766010512225 -5.0916102198362685 -5.165838960917311
54 10.260816441943017 -4.73420729989402 3.848645134477817
17 3.1949576124530004 5.640488862006979 12.987989328420381
57 -6.002229743034546 -9.148381789957638 -6.014040766147582
63 2.1757170750596257 -1.999529063723873 -5.910287904860959
67 0.06270586388321737 -7.627103398341143 -5.347366446207755
58 6.625023041926294 1.8485486636490125 9.17646728946366
79 -4.016429136285366 10.217375827253043 -4.139656116977312
61 -5.8106307114005915 10.11432603988181 8.789160582471972
71 0.45182891440568057 -0.8589805173181474 4.99938888394717
60 2.939856899604055 -15.690294343588539 -6.263425047141467
163 1.7089394344453959 4.618215522917053 0.41918517280064044
66 2.9524663068601074 -14.433616273341759 -2.1717606672157825
65 7.039209350225369 2.7892005347400897 8.380065190454388
62 -8.121993172324375 -4.98335655828611 4.250645637028254
68 -0.17129565965612617 -4.949958668272779 5.706436115527735
188 17.590436475200352 -5.678523560849384 10.687031646882025
72 1.6610505773320712 10.907922013731524 -1.2276302992125665
70 1.425293224550103 -3.3715270752768256 -4.379002694474416
27 -6.215511195614809 5.287709327845201 3.609150125671283
75 -17.637842660719425 6.498359777513818 -14.234631734769682
81 -0.8000393336009173 0.2914921899324376 18.072515226894318
73 -8.290246442701203 0.554216933203494 10.90062137416738
74 0.5462032873139016 5.698105076642915 -0.7009796522864133
97 -7.457931610011643 -6.617797566327065 7.590882086687935
76 -8.3472125850445 -7.176936818149456 4.904417442076276
78 -2.6963841007425775 4.091269667850196 -4.9872515226353
87 -11.782169787257281 8.180735102008645 -4.96173778544262
82 -3.063646112869329 -0.7149203301819882 -0.7066035517902
83 6.684767094200418 0.9481149192441511 -5.355958313368157
84 0.23658233914195292 -0.6663658648803886 0.12224345726318059
100 2.379481439151602 7.947827591675937 7.497925745525693
127 2.2705629492444555 11.878576478267526 5.938981859004806
85 5.826206865833043 6.402074971221053 -3.7168381622053683
88 5.457190437674309 9.368185503311755 5.314194287274765
86 7.653799633866731 -6.471909799829808 6.719073141016246
90 2.7687789440397923 -7.216062655805509 4.7017380469205845
89 4.335581896009634 -11.411047664116495 7.611659818663376
93 -1.8285583399681906 20.600866874538696 -1.4964766090750687
99 -11.367588187309597 6.491773075325921 -3.4627598541196742
94 2.9891430788501263 -16.78782049821266 -1.0155214025164343
103 2.423597806571007 -2.857298380267672 -5.343851561515416
56 -12.741392315241272 -14.442146724729225 -0.30929549143417384
96 -11.634775126946883 6.523496907780692 -3.4542312770367403
107 10.61076781233378 13.767418383567568 -7.646281616504148
95 -1.1564358977974798 -3.2337527234824255 13.756521368889286
105 -8.669567432611451 15.779863909929063 -5.728373666858072
69 -1.7615526308470966 -9.064173372196613 6.7560854281960285
104 -12.988063007526575 -11.5626551302318 1.6554918823155993
101 -1.6386605362549937 1.3962468369166847 -4.662573642837962
102 0.5651728315491529 2.262946381127538 -4.866582498080288
98 -13.618218901369598 -11.684200685610934 -8.891809341143015
64 0.025160039461311283 -16.499605086579272 2.9833104435327487
106 -8.498548287808775 -1.8451700488381202 -6.365987529919508
108 -0.891981772457885 -2.9381597806897295 -1.3415480712597438
170 -7.367383031689602 8.45422570879432 -5.184053650013385
206 6.543882166144328 -8.097472005769767 16.761395649290222
111 23.88357869185404 6.1223576067364816 0.6811600160641176
114 -4.341939491493709 -3.188926055123505 10.155167789121824
131 -3.5433118705200357 -2.709096218720603 -0.02643682756765837
115 -11.698918594941773 -1.6986931639828875 7.017902571141349
117 5.578454101893768 9.574414268120222 -10.331698413239069
119 -1.9208889354703838 2.981636034267215 2.481818396011857
120 4.175093830686136 9.5865043298623 1.0380582555238684
2 -3.616505838792307 -2.634762627383104 -2.66350382154159
121 -1.5169600637408793 9.246992109306738 8.602708366025338
112 7.4079809838311155 6.466731035082207 -2.229511344470895
122 -1.0532032782312672 1.182542342738802 -3.851074294669075
125 -0.1515087299239454 7.438910072024338 -7.893736717957042
141 -6.317006368550429 -1.0033364885242284 11.303298497716119
124 4.261353050513226 4.6703652366956945 11.318075880534407
118 20.01573610235889 3.9375925768593425 -12.764646021793673
126 -2.947891508920329 6.892208825845628 -11.080467111467994
166 15.484881042867888 0.42290589329134237 -0.7469153494499369
129 -6.403854369096122 1.510077272065971 -3.1543464757824644
132 -0.8206078923719686 -5.463677395696669 -6.355553070654137
135 -6.373464609835346 -10.977798406893685 -1.8966780412752158
146 -3.684176866459986 -9.460209961561645 -10.963768832861076
137 7.841384519254393 14.102966385034511 -12.945649699146447
152 6.960614874361234 3.192606323807433 5.557431449898761
134 4.083896293248705 -6.676296878673053 -2.370046147027613
140 0.9360985779873175 14.697180258254807 -2.5304531208726013
136 -8.832284387858374 11.285848399930048 -8.615560233332285
143 1.0232688608994824 -0.062217027476871224 -1.8772151119923899
130 -3.5608023019155444 -8.356148967002028 6.114056356677451
139 -1.3662004296114825 -0.2320305878618719 2.289849652673749
183 10.829683684349426 -10.617950941553865 4.255231490156522
138 -10.410457777068446 -8.70100474636531 -1.37057270490936
144 -0.9342357359294621 9.665053639668525 1.1139023773880141
142 3.426988919336133 -14.181110476437064 6.336290296102735
147 -4.8162974467861295 7.3565107116866955 -1.777006602546837
150 -2.364994707880608 8.166449548501284 3.434094085874478
154 -7.405773444225105 5.8203221148325275 10.869814963639113
110 0.2245791912697796 8.498412479575723 -11.179582092728568
145 -4.842010221004292 6.805786734953758 -3.6394704881117472
153 1.8188452723959916 1.9160228754512847 -1.3462521521846174
155 -9.539815350879397 0.447387823290928 -13.342775287044288
156 2.062560212694247 -2.8668575489959145 3.312855456524182
38 -3.99921437859724 3.410410328507206 -1.2759600013724213
116 2.646872150004177 -1.4580236511157416 0.06486040042537855
148 5.4881627411245235 13.283985010770992 -4.58945235308192
158 6.410247042068194 -4.819857138264106 4.295574261311793
157 0.6164426568969276 9.56008748916971 -5.480644487993655
123 -6.075393833390152 5.870065190168059 -1.3554971113241434
159 -0.08311618898990267 -6.9039814998538835 -14.278890071396667
199 0.4688371874500875 -0.24690422214006588 -2.4763652844969086
161 1.503469729080662 -9.629979829662078 -1.7232038095272288
162 15.271096491504606 5.136380936392773 6.097229914431942
160 2.3258937831602733 2.7322262244558315 -7.834383417854471
202 1.008790096757375 -2.458918730292469 -8.076236942722701
49 -5.338689239286344 -7.606806784959829 4.714605118937904
91 -4.678342611275879 -11.363218720647344 9.976984451656156
164 -2.2248029399452878 -7.45144729881698 -3.153155749886867
173 -2.2292764171477706 0.4413193001140403 -7.493069871230204
165 2.5046186894748215 -12.117453671554815 -2.2559611125571926
181 -13.028524059083603 -6.7373785688061405 -0.7657171228341921
169 -8.63577243174699 -4.406512428840041 -4.065069003541666
191 4.21030864015593 4.460539239903276 -8.030952076507623
167 18.87336542920465 -8.602192689368401 -8.809943993939372
168 1.9121886175915084 1.0650348948952086 1.8356124682414299
175 -4.347066227537804 0.514546688099403 3.5576580318011506
184 2.343891495858228 8.292301882659158 13.547771911427565
171 -2.1975114646652085 6.45483756679031 -7.817763751735844
178 -4.839216667187349 1.713499405842125 7.486297102604123
174 -6.294995581564334 0.24954969528539464 4.922741617334665
172 -3.0019385233552667 -8.518956795137475 9.402254682129483
177 -2.8533085357309784 -2.0083884629050575 -3.8171438792323467
179 5.976208020649797 2.105595027485347 0.1076193147108103
180 -0.23103367902464705 -0.37861380472835826 3.5951185618946893
194 3.4023542958063406 -8.979802411349826 -2.8400794460334806
176 -3.7588269588686885 -7.143940409611961 1.047294436529462
182 0.4446962133634797 1.9215854896453426 12.511966776717912
189 11.853965570332361 2.4964894741067107 -8.703158644033339
185 -9.587972748653552 2.050064872577441 3.3636203927755184
209 14.153022723474862 -3.687054624638081 -0.7985022588701414
187 13.764103872505324 10.57190076055676 4.093704347543393
186 3.54859548910701 0.9093393481672304 -7.736757996926838
193 -4.306456786805558 -2.7405982855676303 -0.23159047812299993
197 6.469558610967125 -8.421993073016685 -8.206716709460165
195 2.7395583613722043 4.955118422079477 -14.936175449884853
196 13.245687453068914 -4.822378840781277 7.7726811424217574
190 -5.293583107056437 -5.499911832208963 4.703554106413455
192 7.664687320281992 0.5537976013305334 4.698805336906929
149 -5.583608217274711 -3.7819454348250683 -2.673723327579545
80 -2.2450989749225445 0.9048066713846511 -6.577025186063486
133 -10.572649707737684 -2.022863422255544 6.733157370727756
198 11.122501729765059 0.6646824640297343 -10.417320768861662
212 -1.4154719896995105 4.9272423691823555 -9.38526507188603
37 -0.5577409862428289 3.304672560238027 -9.234056695440731
200 2.134960703483855 -24.89101798089062 2.2548591463742214
203 -2.4228604149238837 -0.725998184146822 0.6236778388579914
205 -10.839821317876513 -0.4746352505787259 -0.7439586683645009
201 2.522315429128233 -2.673548073941228 -9.480058302428331
204 4.993397697778472 5.610032081045671 -4.346762711366631
211 -9.222484269637263 -4.551398089191184 10.836102728584349
213 7.938730953089032 0.026056987997464105 5.1765508536115314
207 -0.37762027560109485 -1.5701610886522406 -0.5443743155801526
113 0.6451621792204867 -7.301997418840773 0.9975521575683007
208 6.2752009894228316 -3.3857348130573146 17.06957950949248
210 -9.5043281417479 8.298723904740076 0.6347788072709356
214 -6.166080060475697 -6.816663261234084 5.843077922274822
216 -8.729301105505662 4.807791795322197 -1.627140812435668
215 5.580023662249145 12.440870546267359 -1.8380908976749477
151 -3.6802188526852184 -2.3383216848055732 8.049963386108434
