LAMMPS (23 Jun 2022 - Update 3)
OMP_NUM_THREADS environment is not set. Defaulting to 1 thread. (src/comm.cpp:98)
  using 1 OpenMP thread(s) per MPI task
echo both

# Define some variables
variable	temperature equal 1720.
variable	tempDamp equal 0.1 # approx 0.1 ps
variable	pressure equal 1.
variable	pressureDamp equal 1.0
variable	seed equal 20000802

# Setup
units		metal
atom_style	full

# Initial configuration
# Cubic diamond lattice
lattice 	diamond 5.4307
Lattice spacing in x,y,z = 5.4307 5.4307 5.4307
region          myreg block 0 3 0 3 0 3
create_box      1 myreg
Created orthogonal box = (0 0 0) to (16.2921 16.2921 16.2921)
  2 by 2 by 3 MPI processor grid
create_atoms    1 region myreg
Created 216 atoms
  using lattice units in orthogonal box = (0 0 0) to (16.2921 16.2921 16.2921)
  create_atoms CPU = 0.003 seconds
variable 	mass equal 28.0855
mass            1 ${mass}
mass            1 28.0855

# More setup options
variable	out_freq equal 500
variable	out_freq2 equal 500
neigh_modify    delay 10 every 1
pair_style 	sw
pair_coeff 	* * Si.sw Si
Reading sw potential file Si.sw with DATE: 2007-06-11
timestep	0.002
thermo          ${out_freq}
thermo          500
thermo_style 	custom step temp pe press lx
restart 	${out_freq} Restart.lmp Restart2.lmp
restart 	500 Restart.lmp Restart2.lmp

# Perform minimization
minimize 1.0e-2 1.0e-3 100 1000
WARNING: Using 'neigh_modify every 1 delay 0 check yes' setting during minimization (src/min.cpp:187)
Neighbor list info ...
  update every 1 steps, delay 0 steps, check yes
  max neighbors/atom: 2000, page size: 100000
  master list distance cutoff = 5.77118
  ghost atom cutoff = 5.77118
  binsize = 2.88559, bins = 6 6 6
  1 neighbor lists, perpetual/occasional/extra = 1 0 0
  (1) pair sw, perpetual
      attributes: full, newton on
      pair build: full/bin
      stencil: full/bin/3d
      bin: standard
Per MPI rank memory allocation (min/avg/max) = 7.137 | 7.137 | 7.137 Mbytes
   Step          Temp          PotEng         Press            Lx      
         0   0             -936.70557      139.96968      16.2921      
         1   0             -936.70557      139.96968      16.2921      
Loop time of 0.0114342 on 12 procs for 1 steps with 216 atoms

91.0% CPU use with 12 MPI tasks x 1 OpenMP threads

Minimization stats:
  Stopping criterion = energy tolerance
  Energy initial, next-to-last, final = 
     -936.705573919038  -936.705573919038  -936.705573919038
  Force two-norm initial, final = 2.4095498e-13 1.8134305e-13
  Force max component initial, final = 2.1391851e-14 2.136789e-14
  Final line search alpha, max atom move = 1 2.136789e-14
  Iterations, force evaluations = 1 2

MPI task timing breakdown:
Section |  min time  |  avg time  |  max time  |%varavg| %total
---------------------------------------------------------------
Pair    | 3.6117e-05 | 3.7533e-05 | 3.9279e-05 |   0.0 |  0.33
Bond    | 1.71e-07   | 1.94e-07   | 2.1e-07    |   0.0 |  0.00
Neigh   | 3.8288e-05 | 3.9719e-05 | 4.2413e-05 |   0.0 |  0.35
Comm    | 0.00032209 | 0.00035431 | 0.00038275 |   0.0 |  3.10
Output  | 0          | 0          | 0          |   0.0 |  0.00
Modify  | 0          | 0          | 0          |   0.0 |  0.00
Other   |            | 0.011      |            |       | 96.22

Nlocal:             18 ave          18 max          18 min
Histogram: 12 0 0 0 0 0 0 0 0 0
Nghost:            353 ave         353 max         353 min
Histogram: 12 0 0 0 0 0 0 0 0 0
Neighs:              0 ave           0 max           0 min
Histogram: 12 0 0 0 0 0 0 0 0 0
FullNghs:          612 ave         612 max         612 min
Histogram: 12 0 0 0 0 0 0 0 0 0

Total # of neighbors = 7344
Ave neighs/atom = 34
Ave special neighs/atom = 0
Neighbor list builds = 1
Dangerous builds = 0

reset_timestep 	0

# NVT equilibration

fix             1 all nve
fix             2 all temp/csvr ${temperature} ${temperature} ${tempDamp} ${seed}
fix             2 all temp/csvr 1720 ${temperature} ${tempDamp} ${seed}
fix             2 all temp/csvr 1720 1720 ${tempDamp} ${seed}
fix             2 all temp/csvr 1720 1720 0.1 ${seed}
fix             2 all temp/csvr 1720 1720 0.1 20000802

velocity        all create ${temperature} ${seed} dist gaussian
velocity        all create 1720 ${seed} dist gaussian
velocity        all create 1720 20000802 dist gaussian
run             25000
Per MPI rank memory allocation (min/avg/max) = 6.012 | 6.012 | 6.012 Mbytes
   Step          Temp          PotEng         Press            Lx      
         0   1720          -936.70557      11946.423      16.2921      
       500   1796.1531     -887.71428      18476.955      16.2921      
      1000   1853.4247     -885.6528       20086.855      16.2921      
      1500   1700.7613     -885.23696      17188.111      16.2921      
      2000   1716.5014     -886.08526      17110.126      16.2921      
      2500   1723.4597     -884.61621      17905.248      16.2921      
      3000   1718.5848     -884.02336      16544.307      16.2921      
      3500   1702.4229     -876.45939      16475.585      16.2921      
      4000   1640.8267     -883.66172      17495.661      16.2921      
      4500   1677.0491     -884.03619      14767.102      16.2921      
      5000   1763.8595     -882.00507      17417.764      16.2921      
      5500   1642.546      -885.66894      15989.383      16.2921      
      6000   1860.0539     -882.41139      16312.337      16.2921      
      6500   1636.5672     -881.41303      15758.809      16.2921      
      7000   1736.0045     -886.36371      15387.125      16.2921      
      7500   1755.0333     -882.45412      17019.794      16.2921      
      8000   1796.5806     -879.64043      15099.451      16.2921      
      8500   1598.8923     -887.96459      13955.175      16.2921      
      9000   1866.9229     -885.30862      16910.648      16.2921      
      9500   1610.9966     -884.76932      14585.813      16.2921      
     10000   1681.2491     -878.82006      12704.409      16.2921      
     10500   1714.6761     -889.19432      16830.705      16.2921      
     11000   1773.5048     -882.40569      13879.513      16.2921      
     11500   1692.4887     -884.49775      16191.432      16.2921      
     12000   1616.8566     -885.45277      12689.648      16.2921      
     12500   1651.0901     -883.48909      15413.309      16.2921      
     13000   1683.7092     -884.76947      15293.767      16.2921      
     13500   1866.5828     -888.94945      16377.412      16.2921      
     14000   1678.9231     -886.11076      16138.265      16.2921      
     14500   1835.9027     -883.29847      17142.896      16.2921      
     15000   1654.388      -883.08458      16658.018      16.2921      
     15500   1635.0309     -879.14147      13962.034      16.2921      
     16000   1680.9636     -883.53816      14049.321      16.2921      
     16500   1630.9223     -883.29899      16656.96       16.2921      
     17000   1714.8459     -886.8886       17316.541      16.2921      
     17500   1762.498      -890.36491      16195.949      16.2921      
     18000   1757.3178     -892.31156      15123.069      16.2921      
     18500   1772.8325     -886.45878      14225.844      16.2921      
     19000   1899.9666     -881.54781      18703.649      16.2921      
     19500   1811.1435     -884.15031      14687.392      16.2921      
     20000   1591.8428     -881.39003      17032.625      16.2921      
     20500   1756.6627     -881.16941      15492.32       16.2921      
     21000   1584.7675     -883.7719       16171.092      16.2921      
     21500   1773.273      -886.27635      15252.478      16.2921      
     22000   1802.7836     -883.40388      17826.931      16.2921      
     22500   1576.1381     -885.11049      15002.5        16.2921      
     23000   1658.3269     -885.80936      15262.454      16.2921      
     23500   1841.0848     -884.01525      13607.596      16.2921      
     24000   1770.0233     -884.35696      15976.689      16.2921      
     24500   1717.051      -890.01377      14592.913      16.2921      
     25000   1572.3586     -884.20877      16754.04       16.2921      
Loop time of 1.73853 on 12 procs for 25000 steps with 216 atoms

Performance: 2484.862 ns/day, 0.010 hours/ns, 14379.990 timesteps/s
99.4% CPU use with 12 MPI tasks x 1 OpenMP threads

MPI task timing breakdown:
Section |  min time  |  avg time  |  max time  |%varavg| %total
---------------------------------------------------------------
Pair    | 0.80796    | 0.81983    | 0.83085    |   0.8 | 47.16
Bond    | 0.0010648  | 0.0011642  | 0.0012988  |   0.2 |  0.07
Neigh   | 0.024051   | 0.024548   | 0.025386   |   0.2 |  1.41
Comm    | 0.6729     | 0.6948     | 0.72002    |   2.0 | 39.96
Output  | 0.037273   | 0.037426   | 0.037548   |   0.0 |  2.15
Modify  | 0.091042   | 0.10708    | 0.11741    |   2.8 |  6.16
Other   |            | 0.05368    |            |       |  3.09

Nlocal:             18 ave          20 max          15 min
Histogram: 2 0 1 0 0 0 2 0 6 1
Nghost:        347.833 ave         353 max         339 min
Histogram: 1 0 0 0 1 3 1 4 0 2
Neighs:              0 ave           0 max           0 min
Histogram: 12 0 0 0 0 0 0 0 0 0
FullNghs:      652.833 ave         718 max         542 min
Histogram: 2 1 0 0 0 0 2 1 5 1

Total # of neighbors = 7834
Ave neighs/atom = 36.268519
Ave special neighs/atom = 0
Neighbor list builds = 550
Dangerous builds = 0

unfix           1
unfix           2

# NPT equilibration
# The symmetry of the crystal structure allows us to use an isotropic barostat

fix             1 all nph iso ${pressure} ${pressure} ${pressureDamp}
fix             1 all nph iso 1 ${pressure} ${pressureDamp}
fix             1 all nph iso 1 1 ${pressureDamp}
fix             1 all nph iso 1 1 1
fix             2 all temp/csvr ${temperature} ${temperature} ${tempDamp} ${seed}
fix             2 all temp/csvr 1720 ${temperature} ${tempDamp} ${seed}
fix             2 all temp/csvr 1720 1720 ${tempDamp} ${seed}
fix             2 all temp/csvr 1720 1720 0.1 ${seed}
fix             2 all temp/csvr 1720 1720 0.1 20000802

velocity        all create ${temperature} ${seed} dist gaussian
velocity        all create 1720 ${seed} dist gaussian
velocity        all create 1720 20000802 dist gaussian
run             25000
Per MPI rank memory allocation (min/avg/max) = 6.016 | 6.019 | 6.02 Mbytes
   Step          Temp          PotEng         Press            Lx      
     25000   1720          -884.20877      17767.483      16.2921      
     25500   1654.3428     -883.23244     -9407.1436      16.451106    
     26000   1826.3291     -884.16534      9046.9629      16.347866    
     26500   1766.6744     -886.40958     -2782.5134      16.397588    
     27000   1737.7103     -885.72184      7613.8952      16.351734    
     27500   1862.8188     -888.19421     -8183.7029      16.42382     
     28000   1845.1702     -886.71263      5165.5485      16.355808    
     28500   1827.2575     -879.63937     -620.69705      16.400076    
     29000   1761.1998     -886.9909      -1287.8169      16.394524    
     29500   1576.5847     -881.45885      410.19943      16.379958    
     30000   1830.1371     -883.97798      769.4187       16.387805    
     30500   1722.7439     -887.8586       6256.2708      16.355818    
     31000   1858.4086     -882.38003     -10817.08       16.449842    
     31500   1699.6914     -883.30746      9759.7727      16.333044    
     32000   1760.6135     -886.88687     -6869.4693      16.426446    
     32500   1704.7179     -880.5078       5425.0465      16.343578    
     33000   1729.5983     -877.64082     -9255.7963      16.427217    
     33500   1606.5014     -887.44513      17219.036      16.277506    
     34000   1786.6241     -883.03877     -7283.0015      16.416436    
     34500   1772.3758     -888.6751       227.43949      16.381008    
     35000   1738.6796     -880.16122      2332.8739      16.352435    
     35500   1579.3941     -885.44658     -8027.9276      16.424531    
     36000   1745.7289     -881.69309      9589.2636      16.31276     
     36500   1736.6315     -884.42613     -12738.305      16.467426    
     37000   1655.106      -886.30491      8063.461       16.326473    
     37500   1703.5336     -884.21289     -4578.3939      16.404323    
     38000   1676.6119     -884.67081      3488.0665      16.361034    
     38500   1707.5036     -883.76349     -5334.7148      16.419992    
     39000   1578.3821     -882.2618       12348.529      16.309666    
     39500   1701.3155     -879.31242     -8242.0826      16.432038    
     40000   1658.3357     -883.14834      7354.6748      16.349149    
     40500   1705.6503     -881.06039     -4453.4442      16.404265    
     41000   1699.7497     -884.21538      1745.5995      16.377263    
     41500   1705.6802     -884.93732     -602.00444      16.393873    
     42000   1601.5255     -882.9796       2526.8164      16.368848    
     42500   1602.7447     -885.33085     -5550.3101      16.412055    
     43000   1729.2561     -891.19823      10087.852      16.324297    
     43500   1581.9204     -880.83782     -10922.949      16.436317    
     44000   1856.3165     -879.80379      10795.852      16.321946    
     44500   1794.9398     -883.88102     -12058.489      16.449415    
     45000   1577.0853     -880.33547      4404.939       16.347345    
     45500   1833.6519     -882.43392     -453.13727      16.394014    
     46000   1498.8192     -881.13538      1074.5758      16.367893    
     46500   1821.7055     -887.16532     -686.64378      16.400484    
     47000   1772.8983     -882.05886      4925.8269      16.362687    
     47500   1615.0784     -885.52477     -2108.3268      16.386108    
     48000   1669.0193     -886.218       -1791.3711      16.391281    
     48500   1704.9445     -880.96028      4901.5699      16.366159    
     49000   1716.4153     -883.74885     -1338.7416      16.402967    
     49500   1703.6621     -888.97507      3233.8907      16.361085    
     50000   1649.3257     -885.32599     -4067.2943      16.405557    
Loop time of 1.97458 on 12 procs for 25000 steps with 216 atoms

Performance: 2187.802 ns/day, 0.011 hours/ns, 12660.893 timesteps/s
99.5% CPU use with 12 MPI tasks x 1 OpenMP threads

MPI task timing breakdown:
Section |  min time  |  avg time  |  max time  |%varavg| %total
---------------------------------------------------------------
Pair    | 0.74969    | 0.76844    | 0.77984    |   1.1 | 38.92
Bond    | 0.0010133  | 0.0011674  | 0.0013082  |   0.2 |  0.06
Neigh   | 0.028805   | 0.029735   | 0.03075    |   0.3 |  1.51
Comm    | 0.67227    | 0.6966     | 0.7307     |   2.4 | 35.28
Output  | 0.014704   | 0.01486    | 0.014989   |   0.1 |  0.75
Modify  | 0.38909    | 0.40617    | 0.42042    |   1.8 | 20.57
Other   |            | 0.0576     |            |       |  2.92

Nlocal:             18 ave          21 max          16 min
Histogram: 4 0 1 0 2 0 2 0 2 1
Nghost:        348.583 ave         351 max         345 min
Histogram: 1 1 0 1 0 2 4 0 0 3
Neighs:              0 ave           0 max           0 min
Histogram: 12 0 0 0 0 0 0 0 0 0
FullNghs:      637.333 ave         752 max         557 min
Histogram: 4 0 1 0 2 1 1 2 0 1

Total # of neighbors = 7648
Ave neighs/atom = 35.407407
Ave special neighs/atom = 0
Neighbor list builds = 667
Dangerous builds = 0

unfix           1
unfix           2


# Dump trajectories in dump and dcd format
dump            myDump all atom ${out_freq2} si.lammps-dump-text
dump            myDump all atom 500 si.lammps-dump-text
dump            myDcdDump all dcd ${out_freq2} out.dcd
dump            myDcdDump all dcd 500 out.dcd

# NPT + enhanced sampling

reset_timestep  0

fix             1 all nph iso ${pressure} ${pressure} ${pressureDamp}
fix             1 all nph iso 1 ${pressure} ${pressureDamp}
fix             1 all nph iso 1 1 ${pressureDamp}
fix             1 all nph iso 1 1 1
fix             2 all temp/csvr ${temperature} ${temperature} ${tempDamp} ${seed}
fix             2 all temp/csvr 1720 ${temperature} ${tempDamp} ${seed}
fix             2 all temp/csvr 1720 1720 ${tempDamp} ${seed}
fix             2 all temp/csvr 1720 1720 0.1 ${seed}
fix             2 all temp/csvr 1720 1720 0.1 20000802
fix		3 all momentum 10000 linear 1 1 1 angular

run             1000000
Per MPI rank memory allocation (min/avg/max) = 7.037 | 7.04 | 7.041 Mbytes
   Step          Temp          PotEng         Press            Lx      
         0   1649.3257     -885.32599     -4067.2943      16.405557    
       500   1665.1869     -883.17373      5381.946       16.355632    
      1000   1751.1409     -881.77971     -13287.652      16.468128    
      1500   1785.0509     -887.03672      17461.707      16.287668    
      2000   1627.9787     -882.23333     -11660.615      16.443806    
      2500   1736.2369     -883.71002      9491.871       16.328233    
      3000   1724.9883     -882.71036     -5049.9732      16.413604    
      3500   1768.1287     -877.65533      5920.3771      16.347993    
      4000   1683.4478     -884.45171     -9066.2773      16.436252    
      4500   1787.7527     -886.56238      9162.5396      16.33336     
      5000   1751.5575     -881.58715     -4114.8332      16.413906    
      5500   1634.9701     -885.66209      3535.2437      16.365848    
      6000   1734.4798     -879.17616     -2304.1849      16.393635    
      6500   1685.9867     -882.63336     -202.90511      16.372865    
      7000   1699.3114     -884.0645       1127.0891      16.367778    
      7500   1813.2475     -883.86128     -2847.958       16.389439    
      8000   1760.8993     -878.31272      18.909905      16.379902    
      8500   1579.3252     -887.42965     -3107.3074      16.398777    
      9000   1666.4133     -879.39434      8462.9895      16.325486    
      9500   1763.7521     -887.99511     -18018.051      16.480484    
     10000   1769.5691     -881.5027       13452.938      16.309366    
     10500   1555.9548     -884.73755     -9076.0414      16.429669    
     11000   1762.2312     -882.55753      5269.9477      16.342408    
     11500   1818.5315     -887.19103     -4502.1829      16.41824     
     12000   1778.6933     -889.66049      15658.893      16.296959    
     12500   1671.0199     -882.794       -12393.234      16.446826    
     13000   1735.8786     -886.09277      8571.9581      16.344859    
     13500   1736.7521     -885.05477     -4492.9768      16.409654    
     14000   1597.629      -883.55646      2370.6455      16.366983    
     14500   1784.7096     -881.36965     -3045.2521      16.396913    
     15000   1588.9542     -880.81426     -822.66786      16.375363    
     15500   1629.0927     -879.13335      137.92613      16.374048    
     16000   1734.5031     -884.48033      1708.9381      16.35964     
     16500   1735.8515     -884.45055      54.888789      16.374419    
     17000   1725.4314     -886.27878      2137.0405      16.36318     
     17500   1723.9692     -888.20056     -2776.5076      16.392465    
     18000   1645.7758     -889.47521      3231.9861      16.371667    
     18500   1819.8937     -887.92449      970.01594      16.381743    
     19000   1982.3562     -883.204        2371.7369      16.386588    
     19500   1764.3373     -882.92413      2770.0209      16.376007    
     20000   1776.151      -887.21309     -5660.091       16.412706    
     20500   1783.9088     -880.84793      11516.802      16.324985    
     21000   1548.0755     -882.10281     -7122.8366      16.426319    
     21500   1776.1994     -886.08631      4087.2741      16.363802    
     22000   1787.7299     -882.67452      680.72563      16.37747     
     22500   1586.3437     -884.59152      980.07214      16.361709    
     23000   1684.9062     -886.12468     -5344.8719      16.395695    
     23500   1843.9685     -883.92972      9229.7888      16.323176    
     24000   1649.1259     -880.65241     -10697.438      16.443443    
     24500   1498.9585     -883.56651      8050.7976      16.315373    
     25000   1745.3761     -887.91298     -13107.852      16.443869    
     25500   1736.204      -883.2644       20650.46       16.274105    
     26000   1661.5737     -887.08633     -11723.489      16.446472    
     26500   1732.8722     -881.33072      7443.9959      16.350395    
     27000   1884.6561     -886.37049     -6058.6079      16.416985    
     27500   1608.4979     -880.32497      3850.2978      16.35414     
     28000   1719.7951     -887.89565     -2114.9748      16.394264    
     28500   1725.2637     -881.81404      1070.5202      16.368986    
     29000   1711.3959     -884.9217       2609.555       16.36866     
     29500   1634.8937     -881.02144     -851.74393      16.381387    
     30000   1580.3495     -881.22771      3399.8336      16.359885    
     30500   1708.1593     -881.67476     -3130.3467      16.398948    
     31000   1695.2719     -881.21521      5091.7912      16.34611     
     31500   1745.3832     -885.19089     -10789.531      16.434646    
     32000   1814.4814     -884.28002      18321.393      16.285258    
     32500   1822.332      -883.62835     -13515.043      16.450622    
     33000   1726.8251     -886.26803      7064.84        16.333949    
     33500   1802.431      -875.80437     -3798.6813      16.413448    
     34000   1771.961      -886.20692      4481.3166      16.352328    
     34500   1589.2562     -887.42278     -7631.8669      16.422865    
     35000   1723.6258     -884.07143      11908.543      16.301976    
     35500   1724.9182     -881.54156     -10169.176      16.449753    
     36000   1696.0346     -884.13861      8703.2744      16.341165    
     36500   1736.3566     -888.77599     -8224.7958      16.433553    
     37000   1688.2127     -887.46802      7662.9394      16.346666    
     37500   1650.6297     -886.88182     -2780.9478      16.40252     
     38000   1773.8033     -885.26376      6052.1576      16.354006    
     38500   1750.8816     -885.10059     -5636.1684      16.426063    
     39000   1660.5468     -879.99844      6540.6334      16.339084    
     39500   1577.2348     -883.2624      -12295.007      16.435496    
     40000   1541.7696     -886.25616      5643.54        16.339634    
     40500   1717.0124     -884.79591     -1695.642       16.397084    
     41000   1964.0251     -882.38423      1553.6303      16.380958    
     41500   1838.7091     -887.39763     -456.69232      16.39179     
     42000   1731.6344     -885.68043      6740.6449      16.34775     
     42500   1791.7359     -881.39414     -10844.385      16.444955    
     43000   1760.1975     -883.14324      10380.075      16.318608    
     43500   1654.6028     -881.13792     -9026.0906      16.426649    
     44000   1672.8235     -883.92259      11789.007      16.294151    
     44500   1389.0043     -884.77582     -20012.58       16.48451     
     45000   1714.3973     -880.60144      9522.4018      16.32788     
     45500   1705.6481     -883.62293     -4406.5262      16.396578    
     46000   1586.7705     -886.5049       5934.2391      16.339367    
     46500   1621.4592     -884.02903     -7569.3538      16.429384    
     47000   1722.4725     -878.65241      9329.7475      16.323486    
     47500   1672.7982     -878.95853     -8567.1072      16.425295    
     48000   1869.8438     -886.82321      9633.0294      16.344337    
     48500   1641.1249     -880.96523     -4875.7847      16.409861    
     49000   1566.716      -881.12705      2108.3775      16.36066     
     49500   1748.2802     -883.71969     -4686.1888      16.416084    
     50000   1619.2585     -887.12713      13229.125      16.307945    
     50500   1858.9278     -887.09489     -9009.6675      16.441112    
     51000   1624.5778     -884.86442      4832.1031      16.349485    
     51500   1741.3948     -886.82901      1086.3614      16.38596     
     52000   1629.4529     -884.14937      1332.5058      16.384134    
     52500   1609.2549     -886.89045     -564.64181      16.384436    
     53000   1738.0585     -884.06589     -57.341312      16.398275    
     53500   1750.2717     -881.01244      3977.9709      16.370377    
     54000   1742.5043     -883.60152     -8630.8918      16.425767    
     54500   1718.5251     -884.51704      8928.2272      16.336529    
     55000   1572.5939     -887.10886     -6462.9681      16.425584    
     55500   1813.8819     -881.6877       9627.7028      16.323511    
     56000   1490.4518     -885.67523     -12248.946      16.453189    
     56500   1678.6635     -888.56674      14919.99       16.289742    
     57000   1855.5039     -883.52771     -9724.0887      16.440712    
     57500   1897.0879     -885.36908      6374.2222      16.353923    
     58000   1814.3474     -887.80616     -1278.6066      16.400331    
     58500   1748.9127     -889.2026       2471.4914      16.36873     
     59000   1707.3701     -884.13066     -5857.028       16.427204    
     59500   1705.2142     -887.1762       4838.1706      16.351486    
     60000   1667.1742     -886.3398      -4859.657       16.415721    
     60500   1894.1981     -881.79452      3542.8971      16.370996    
     61000   1689.9362     -880.16739     -744.33341      16.395985    
     61500   1729.5947     -880.55076     -1201.5777      16.392094    
     62000   1593.1866     -883.84922     -969.06843      16.39704     
     62500   1747.9562     -884.37077     -3047.1075      16.412782    
     63000   1609.7743     -885.18397      8399.0997      16.333905    
     63500   1532.6062     -882.49334     -13533.561      16.451628    
     64000   1704.7052     -882.27282      8449.0148      16.319415    
     64500   1702.7944     -885.3129      -8121.4491      16.418628    
     65000   1838.6113     -886.55909      5564.1104      16.357576    
     65500   1714.2844     -882.45529     -3771.6159      16.414513    
     66000   1819.9594     -878.62081      2629.8223      16.359804    
     66500   1732.8403     -885.1001      -8453.3196      16.41781     
     67000   1718.8527     -883.554        9724.223       16.321411    
     67500   1917.5465     -882.07201     -10155.087      16.457301    
     68000   1661.8846     -883.87206      12534.79       16.287561    
     68500   1653.4758     -879.69847     -5867.6717      16.421121    
     69000   1676.7637     -878.99725      1000.3829      16.367247    
     69500   1813.4322     -879.65387     -1987.6857      16.398541    
     70000   1766.0741     -888.6309       569.6871       16.365655    
     70500   1661.9738     -878.95843     -2998.0708      16.403974    
     71000   1689.7262     -885.33763      1718.6682      16.36916     
     71500   1899.6902     -881.22045      181.60526      16.371289    
     72000   1498.9443     -883.92671     -4093.6341      16.391204    
     72500   1834.7275     -878.4782       6932.294       16.34604     
     73000   1791.533      -883.19879     -15826.674      16.482784    
     73500   1651.4149     -884.55465      14901.374      16.295879    
     74000   1755.0175     -882.40932     -10620.676      16.440612    
     74500   1675.8855     -886.62616      9522.8508      16.321557    
     75000   1667.5338     -881.57718     -8843.3953      16.427116    
     75500   1778.4899     -880.56627      7979.2148      16.339105    
     76000   1747.3203     -888.33298     -3105.9494      16.399358    
     76500   1822.8366     -883.11757      6465.6855      16.355715    
     77000   1894.8936     -885.01572     -5460.7379      16.416034    
     77500   1653.5973     -885.6288       8766.6802      16.323586    
     78000   1796.5546     -882.76168     -8761.0217      16.430627    
     78500   1681.1324     -882.98303      6717.5153      16.330244    
     79000   1625.1347     -883.28153     -4401.1447      16.384804    
     79500   1765.0342     -884.0071       1156.5911      16.369637    
     80000   1753.0072     -884.13952      1781.1656      16.366029    
     80500   1664.4878     -883.56946     -419.52311      16.378648    
     81000   1816.329      -882.95178      3314.3411      16.359571    
     81500   1710.0459     -886.08856     -7133.7845      16.410137    
     82000   1720.0148     -879.61366      4332.8951      16.352828    
     82500   1732.5429     -882.08687     -2460.0839      16.410877    
     83000   1762.1403     -883.98165      4158.049       16.362588    
     83500   1721.3084     -886.60902     -175.49848      16.386504    
     84000   1637.6086     -885.5451      -2044.8089      16.383319    
     84500   1596.8713     -884.89161      412.54718      16.374393    
     85000   1987.0869     -884.82944     -781.55119      16.401037    
     85500   1601.4225     -880.14829      9983.6053      16.313099    
     86000   1609.8737     -888.32284     -11237.8        16.450074    
     86500   1877.5663     -886.11227      9678.5542      16.32988     
     87000   1739.4324     -886.44254     -4594.7124      16.400482    
     87500   1716.0697     -885.41184      3919.5445      16.347627    
     88000   1702.7543     -886.38217     -4598.6141      16.395368    
     88500   1794.5335     -882.39996      1517.3247      16.365643    
     89000   1617.0617     -885.09853     -3203.095       16.400634    
     89500   1685.9608     -878.30299      1404.9297      16.358143    
     90000   1697.3433     -884.59319      891.5342       16.371634    
     90500   1645.8463     -884.41222     -2111.148       16.380576    
     91000   1710.4208     -886.3839       1148.6307      16.371209    
     91500   1873.5758     -883.05414     -86.099431      16.389757    
     92000   1788.5557     -885.94408      4178.3574      16.3548      
     92500   1856.6829     -886.21763     -6705.748       16.420525    
     93000   1610.3656     -884.29541      5401.6487      16.348542    
     93500   1785.9622     -882.03095     -8609.7118      16.415241    
     94000   1897.9888     -888.12111      6138.8616      16.346207    
     94500   1762.7689     -880.58272     -3494.8952      16.402443    
     95000   1768.6961     -880.36084     -14.987997      16.36614     
     95500   1800.1541     -884.63975     -3029.1239      16.384253    
     96000   1689.4282     -879.39378      1695.6915      16.363917    
     96500   1691.8633     -880.31516     -8082.0038      16.4301      
     97000   1721.05       -883.97807      13680.454      16.308013    
     97500   1763.8084     -883.15424     -8374.0008      16.416732    
     98000   1630.4825     -878.62825      3745.3313      16.350356    
     98500   1704.4307     -886.56159     -397.17083      16.374231    
     99000   1804.7734     -883.56291      765.65267      16.379081    
     99500   1586.2899     -885.5604       197.92466      16.368136    
    100000   1782.2286     -885.44687     -2513.4068      16.392224    
    100500   1720.4353     -888.73232      7133.3392      16.343315    
    101000   1652.2299     -881.1258      -12431.949      16.450116    
    101500   1656.7035     -888.67363      12145.981      16.309989    
    102000   1518.4673     -885.42341     -6282.71        16.407031    
    102500   1693.8682     -880.62246      2125.1662      16.363459    
    103000   1752.6952     -883.29626     -1922.3427      16.389191    
    103500   1773.9954     -884.03114      628.71751      16.371841    
    104000   1781.7697     -883.74145     -1039.0426      16.386601    
    104500   1627.2805     -882.63611     -754.00719      16.385523    
    105000   1754.1033     -882.62197      8494.8615      16.331187    
    105500   1541.9293     -878.81395     -14000.483      16.455183    
    106000   1753.2847     -882.75388      9797.8638      16.323556    
    106500   1714.7014     -886.05895     -7731.1498      16.423515    
    107000   1712.2202     -888.89275      3327.474       16.355886    
    107500   1906.6987     -891.63082     -212.10362      16.391649    
    108000   1789.6497     -886.72603      6392.0474      16.354409    
    108500   1717.5423     -885.85148     -10052.652      16.452106    
    109000   1701.8289     -882.40838      15136.234      16.295496    
    109500   1644.6965     -881.78581     -11401.021      16.438329    
    110000   1642.2047     -884.44384      2669.548       16.354344    
    110500   1809.1527     -882.21359     -1193.282       16.399384    
    111000   1825.0011     -884.56618      4061.6259      16.366528    
    111500   1729.3785     -881.17779     -1541.2893      16.398022    
    112000   1689.0021     -885.42625      1459.2322      16.378656    
    112500   1616.0489     -879.69954     -5132.7741      16.427654    
    113000   1699.0203     -884.23978      10174.421      16.31706     
    113500   1683.5939     -879.59762     -9291.5371      16.439138    
    114000   1700.2959     -887.33177      7080.2755      16.344612    
    114500   1914.8641     -888.29952     -639.80856      16.389677    
    115000   1925.1173     -889.97881      5173.4994      16.374691    
    115500   1780.2789     -889.32747     -608.75254      16.388033    
    116000   1809.9244     -876.87423     -1909.1894      16.405081    
    116500   1891.3006     -882.95029      1677.9566      16.371892    
    117000   1561.6678     -887.26061     -3269.9883      16.382127    
    117500   1839.7792     -883.08437      3170.9635      16.360576    
    118000   1948.3129     -880.5691      -3759.4397      16.393829    
    118500   1736.5196     -880.8863       1935.1655      16.371162    
    119000   1621.5132     -885.25288     -8119.8452      16.413373    
    119500   1858.7448     -883.04367      11445.222      16.330726    
    120000   1801.2852     -885.64217     -6493.7339      16.428799    
    120500   1741.3136     -885.05514      8566.3739      16.336631    
    121000   1784.1795     -883.71021     -11413.718      16.438828    
    121500   1566.7936     -880.31539      13424.281      16.282063    
    122000   1646.5566     -881.39326     -10131.865      16.422166    
    122500   1829.4945     -886.49008      4435.4993      16.348177    
    123000   1807.8091     -888.39094     -1254.296       16.386478    
    123500   1636.8993     -886.44565      4337.2486      16.347437    
    124000   1728.9486     -882.41548     -1826.172       16.386799    
    124500   1579.9639     -887.27787      5114.162       16.340389    
    125000   1726.208      -874.86798     -11768.964      16.445004    
    125500   1662.6768     -886.76403      12871.849      16.299233    
    126000   1789.9254     -887.54497     -8956.6958      16.424883    
    126500   1829.8076     -879.45597      2111.8202      16.363996    
    127000   1873.8158     -886.14187     -189.10318      16.376029    
    127500   1790.2706     -883.18807     -3845.5009      16.394325    
    128000   1616.7278     -882.27022      5331.813       16.349291    
    128500   1745.0136     -886.2283      -6794.5608      16.418468    
    129000   1593.5038     -885.89926      4527.9191      16.358608    
    129500   1793.6537     -883.1263      -2792.9109      16.398524    
    130000   1677.1475     -876.21713      1643.721       16.382349    
    130500   1729.2384     -884.73742     -379.29519      16.389982    
    131000   1690.7708     -880.59591     -559.56287      16.380363    
    131500   1853.6986     -883.57816     -2666.3458      16.400974    
    132000   1867.0249     -886.82168      6081.126       16.354394    
    132500   1804.4056     -885.23306     -1555.2822      16.385084    
    133000   1673.4766     -882.24532      3236.0239      16.365842    
    133500   1746.5426     -883.8456      -5464.1732      16.395041    
    134000   1812.3886     -878.96468      3175.0643      16.370821    
    134500   1482.4888     -881.73433     -4336.5508      16.39986     
    135000   1738.139      -884.13054      2608.6294      16.374036    
    135500   1856.924      -886.73681     -3330.4278      16.401797    
    136000   1544.4759     -882.1325       2114.3562      16.361128    
    136500   1804.4118     -881.63499     -4340.9529      16.410402    
    137000   1667.9389     -882.11429      3678.9218      16.367007    
    137500   1856.3523     -886.21391      1726.459       16.375025    
    138000   1634.0059     -884.11166     -3494.8562      16.379934    
    138500   1747.9883     -883.56806     -941.58123      16.384821    
    139000   1739.3878     -881.97193     -942.78338      16.384683    
    139500   1761.6504     -888.65159      866.48524      16.369007    
    140000   1688.8384     -886.11927     -3970.6591      16.405066    
    140500   1824.822      -888.95979      6306.5282      16.352504    
    141000   1689.2788     -886.63632     -6373.2516      16.416212    
    141500   1795.2045     -884.38327      7415.1404      16.336631    
    142000   1813.5077     -887.68694     -8530.5093      16.421251    
    142500   1671.0686     -882.04683      8344.7535      16.334809    
    143000   1596.2562     -886.35462     -9327.5758      16.422771    
    143500   1566.6701     -882.87712      8203.1276      16.336421    
    144000   1599.8766     -886.60775     -6811.9993      16.418715    
    144500   1820.3123     -885.89382      9246.4434      16.337082    
    145000   1628.7992     -887.26618     -14899.268      16.473294    
    145500   1589.2911     -879.71073      3963.6269      16.366646    
    146000   1676.4619     -881.13196     -3536.5937      16.400038    
    146500   1560.1701     -878.37153     -1566.4923      16.38613     
    147000   1750.7642     -886.24085      184.55434      16.386267    
    147500   1635.312      -886.63985     -1998.9577      16.397261    
    148000   1641.0697     -886.31473      3706.3861      16.363302    
    148500   1792.9669     -886.33822     -5492.9762      16.414885    
    149000   1823.1503     -885.86208      3987.7663      16.360953    
    149500   1567.2251     -877.35833     -7738.8049      16.42595     
    150000   1605.9616     -880.45707      10275.333      16.317782    
    150500   1700.8037     -887.00621     -9600.538       16.436608    
    151000   1696.2542     -877.59206      8652.0127      16.327342    
    151500   1721.681      -882.64061     -17028.158      16.486094    
    152000   1587.5599     -885.00381      8525.8446      16.332856    
    152500   1766.2056     -881.29409     -5073.2955      16.403868    
    153000   1608.844      -888.61268      108.40595      16.380955    
    153500   1749.4071     -879.86965     -3759.6597      16.392642    
    154000   1502.0682     -876.5287      -3938.0576      16.388266    
    154500   1680.6109     -878.31599     -835.58541      16.375816    
    155000   1802.7181     -883.61413     -4860.3113      16.395337    
    155500   1725.9266     -883.69052      5900.8273      16.34109     
    156000   1565.1978     -881.65826     -7467.294       16.412291    
    156500   1660.985      -885.85316      2909.938       16.364194    
    157000   1614.0027     -882.70889     -3423.977       16.393404    
    157500   1732.3902     -886.40066      2840.5754      16.363271    
    158000   1802.6897     -883.29077     -11379.766      16.454193    
    158500   1782.4719     -886.97763      10440.437      16.336098    
    159000   1547.8882     -879.44414     -5446.6717      16.404006    
    159500   1559.8308     -881.34142      2105.0209      16.352421    
    160000   1536.4448     -882.04931     -5336.4362      16.410341    
    160500   1977.5724     -885.78116      16040.18       16.297553    
    161000   1664.4636     -883.30382     -14335.893      16.462941    
    161500   1744.5151     -885.38573      7403.6475      16.339876    
    162000   1721.1147     -880.49178     -7436.9868      16.42725     
    162500   1656.8079     -887.98743      7043.9914      16.330507    
    163000   1660.9905     -884.90123     -20928.995      16.500483    
    163500   1844.3606     -880.94552      17664.225      16.294968    
    164000   1817.4425     -885.88518     -6665.7122      16.42843     
    164500   1716.1086     -885.68338      7417.5574      16.340315    
    165000   1667.7568     -884.63043     -8113.7315      16.413365    
    165500   1637.053      -884.62885      8349.887       16.319245    
    166000   1661.4299     -880.5626      -15330.37       16.466883    
    166500   1592.173      -883.21997      5777.7255      16.342228    
    167000   1817.1127     -884.9486      -2777.0228      16.413651    
    167500   1713.7362     -887.04075      4227.2341      16.345562    
    168000   1902.0538     -888.65294     -7858.1685      16.423       
    168500   1743.0161     -882.72617      4575.0313      16.352571    
    169000   1622.7893     -878.25251     -10492.84       16.433696    
    169500   1768.0441     -886.89162      4096.2175      16.355082    
    170000   1680.4894     -884.23473     -1504.5054      16.387264    
    170500   1847.2787     -883.8256       3706.263       16.362511    
    171000   1706.0955     -886.89825     -6507.109       16.408455    
    171500   1665.9584     -886.90626      975.23415      16.3762      
    172000   1596.9417     -885.64213      1353.8768      16.383204    
    172500   1610.7326     -879.58486     -3480.2187      16.398031    
    173000   1705.132      -881.31981      4569.1778      16.357656    
    173500   1712.2439     -886.08551     -7873.9548      16.428655    
    174000   1819.4879     -889.82849      16455.699      16.292004    
    174500   1572.2564     -883.67529     -15797.563      16.461845    
    175000   1902.6736     -889.43028      9257.6937      16.331927    
    175500   1798.007      -888.30901     -2061.0686      16.404337    
    176000   1726.686      -893.5213       8232.4598      16.336615    
    176500   1679.2017     -882.78946     -8876.6247      16.440047    
    177000   1750.9255     -884.03898      13665.984      16.31497     
    177500   1731.8947     -886.12987     -9183.7675      16.425368    
    178000   1821.2198     -883.86667      2998.1006      16.363644    
    178500   1780.3543     -884.75945     -3534.8896      16.396556    
    179000   1631.2568     -884.52422      958.39143      16.361174    
    179500   1603.012      -885.67784      1969.2722      16.356381    
    180000   1873.8445     -885.78606     -2816.1309      16.403944    
    180500   1608.3672     -888.55226      3876.521       16.340699    
    181000   1573.0987     -888.45765     -3240.6783      16.390835    
    181500   1627.4653     -882.91512      1795.2466      16.368967    
    182000   1780.9789     -878.5884      -1883.4683      16.38288     
    182500   1628.0058     -883.09179      4041.5956      16.349762    
    183000   1818.9501     -882.07136     -5371.954       16.4199      
    183500   1894.9461     -884.93289      10093.863      16.327846    
    184000   1747.5506     -886.74146     -5761.6499      16.414176    
    184500   1776.8265     -884.08448      3822.6462      16.351106    
    185000   1785.9818     -879.89651     -3818.33        16.409001    
    185500   1742.7314     -890.23323      1877.512       16.377276    
    186000   1741.1206     -884.00465     -475.60109      16.383444    
    186500   1666.0099     -882.88437      356.72688      16.374738    
    187000   1853.2899     -884.54065     -3584.7627      16.413353    
    187500   1649.284      -885.99809      2542.1609      16.367726    
    188000   1700.7484     -884.18705     -3352.809       16.400544    
    188500   1711.5968     -878.13752      183.2487       16.384891    
    189000   1557.3098     -883.30658      151.96929      16.361744    
    189500   1707.8138     -886.28537     -2687.0581      16.39045     
    190000   1537.2105     -887.86812      1343.5769      16.353457    
    190500   1902.345      -881.85932     -4422.7837      16.40794     
    191000   1733.5032     -884.4685       15582.348      16.289816    
    191500   1824.7335     -887.04611     -12658.056      16.444784    
    192000   1693.0397     -885.76261      9096.4585      16.325133    
    192500   1794.0083     -882.08224     -6040.4497      16.415056    
    193000   1798.4111     -885.37946      4877.5269      16.352843    
    193500   1707.3172     -884.07292     -6013.2763      16.402796    
    194000   1697.6758     -888.36288      10412.761      16.307344    
    194500   1814.6428     -883.15673     -11726.241      16.452914    
    195000   1685.8686     -878.36284      11253.115      16.302152    
    195500   1753.8236     -881.86816     -10572.194      16.425768    
    196000   1744.5933     -885.25316      5972.7133      16.351453    
    196500   1728.0784     -880.88572     -3882.543       16.404887    
    197000   1666.441      -882.23664      4421.5144      16.349198    
    197500   1838.1353     -882.80656     -8900.163       16.426184    
    198000   1692.5497     -886.36484      19905.906      16.257589    
    198500   1838.4566     -881.00044     -14733.514      16.481834    
    199000   1722.7784     -888.83921      6894.0072      16.337261    
    199500   1749.0516     -881.64462     -6239.172       16.420405    
    200000   1743.3949     -887.45978      5213.7088      16.343757    
    200500   1604.5586     -883.13571     -11435.766      16.443476    
    201000   1720.5664     -888.46878      14513.328      16.295125    
    201500   1753.0847     -883.09444     -8573.1807      16.441629    
    202000   1657.3327     -880.35632      966.54299      16.374793    
    202500   1715.3058     -887.37737     -3236.4692      16.397661    
    203000   1717.961      -885.23329      519.82969      16.376202    
    203500   1664.9881     -882.69379      15.546184      16.382803    
    204000   1812.4253     -886.67274     -1240.0653      16.398111    
    204500   1792.7081     -882.52391      2046.793       16.379024    
    205000   1768.7939     -885.35181     -420.12501      16.381714    
    205500   1611.7802     -885.98549      1840.8912      16.3627      
    206000   1754.5244     -886.02914     -6443.5377      16.42621     
    206500   1794.4723     -884.20572      14012.517      16.323543    
    207000   1838.1745     -881.45026     -7868.4929      16.436617    
    207500   1828.4709     -884.86998      7109.809       16.345825    
    208000   1878.8009     -877.7106      -4801.4699      16.432632    
    208500   1652.3045     -886.69314      11199.968      16.313147    
    209000   1732.8159     -886.88385     -12165.701      16.458547    
    209500   1635.0062     -883.7957       6829.5715      16.34984     
    210000   1791.2516     -880.1881      -4118.8736      16.407584    
    210500   1692.8143     -884.4142       1165.1997      16.378951    
    211000   1747.1486     -887.96722     -5489.0439      16.420031    
    211500   1631.2198     -884.53584      14376.984      16.313574    
    212000   1667.8847     -879.99385     -12277.985      16.466046    
    212500   1672.9468     -885.24436      8963.5804      16.325939    
    213000   1694.3228     -881.52686     -2063.8063      16.395138    
    213500   1955.9818     -888.50232      1262.7964      16.373971    
    214000   1544.3866     -885.6953       1775.4431      16.367148    
    214500   1657.9033     -881.02557     -4824.5117      16.394019    
    215000   1682.0263     -882.04002      4061.1658      16.36402     
    215500   1669.7619     -889.29128      1858.827       16.368137    
    216000   1640.479      -884.38836     -1623.8492      16.39043     
    216500   1615.6263     -885.83145      1629.8777      16.376986    
    217000   1806.8548     -881.32968     -1398.2199      16.393049    
    217500   1740.0732     -878.87618      4109.388       16.366207    
    218000   1705.6854     -879.59337     -4118.7695      16.405005    
    218500   1665.4814     -886.61263      6565.3409      16.340577    
    219000   1668.2881     -885.26569     -7911.9801      16.425947    
    219500   1665.9948     -885.91177      11277.303      16.314186    
    220000   1778.4986     -884.12543     -13251.282      16.448336    
    220500   1710.2951     -882.63336      11139.344      16.310812    
    221000   1745.8754     -877.44163     -7600.2901      16.431119    
    221500   1649.2883     -885.5577       8533.1538      16.330759    
    222000   1763.5245     -886.59198     -3232.1366      16.411914    
    222500   1748.2892     -875.76912      3137.4835      16.375145    
    223000   1601.1058     -885.01944     -3088.9571      16.393052    
    223500   1892.1221     -881.77057      1246.7527      16.37967     
    224000   1751.2619     -877.80898      2298.1794      16.373037    
    224500   1910.3575     -881.44459     -718.41177      16.385103    
    225000   1726.9844     -883.61472     -2147.9346      16.396408    
    225500   1602.4218     -888.9382       7013.4426      16.334412    
    226000   1698.9138     -877.78105     -8425.761       16.419637    
    226500   1730.2605     -883.61368      11910.605      16.303289    
    227000   1805.4699     -882.84414     -9771.4117      16.436594    
    227500   1644.4249     -879.59026      4665.8521      16.35006     
    228000   1816.965      -888.13343     -2975.9928      16.397378    
    228500   1886.2396     -881.49008      6006.5931      16.357555    
    229000   1859.2672     -881.72663     -14202.891      16.470424    
    229500   1622.9811     -884.93948      20359.017      16.276805    
    230000   1592.4866     -888.05675     -8940.2829      16.433021    
    230500   1847.2536     -881.46547      9197.2994      16.338135    
    231000   1795.0342     -884.67909     -5340.103       16.425207    
    231500   1718.048      -883.58979      8143.8408      16.342818    
    232000   1642.5335     -885.65136     -12570.701      16.455228    
    232500   1808.0358     -880.09612      5170.2524      16.358931    
    233000   1541.3832     -886.30858     -2568.3609      16.399923    
    233500   1741.679      -883.93687      1425.3832      16.379623    
    234000   1792.1433     -880.46876     -1135.9902      16.402765    
    234500   1792.2363     -876.93833      7255.2428      16.353807    
    235000   1743.2921     -883.80432     -6303.8711      16.402243    
    235500   1726.6888     -886.18927      3065.677       16.367324    
    236000   1700.082      -884.32601     -2789.4935      16.403919    
    236500   1790.4936     -881.45872      5866.2334      16.357705    
    237000   1759.4821     -879.5674      -3287.2185      16.400323    
    237500   1723.0769     -883.05827      500.71859      16.382769    
    238000   1841.134      -885.35637      3499.2475      16.367488    
    238500   1654.5463     -886.43422     -115.44732      16.388989    
    239000   1690.4564     -887.16732      4930.7983      16.34858     
    239500   1634.4223     -880.12962     -8288.9611      16.433863    
    240000   1607.4272     -886.17879      12737.086      16.301127    
    240500   1704.828      -881.46115     -14635.511      16.475835    
    241000   1742.0754     -881.60264      2921.3666      16.351332    
    241500   1711.2859     -879.49976     -1359.6511      16.399932    
    242000   1551.5996     -885.53024      4236.0208      16.345708    
    242500   1701.9743     -880.5417      -7152.823       16.427032    
    243000   1793.2426     -883.69026      6517.2668      16.340564    
    243500   1720.8014     -882.28522     -6473.8939      16.426065    
    244000   1826.3311     -880.78984      10623.355      16.312606    
    244500   1654.5404     -888.46708     -9720.9513      16.420789    
    245000   1615.9311     -884.85408      6002.6802      16.325264    
    245500   1673.1237     -886.06657     -3926.1783      16.395238    
    246000   1689.9835     -883.83276      1671.2954      16.361973    
    246500   1614.8903     -883.96064     -2816.9123      16.384029    
    247000   1777.1582     -884.94452      4545.1495      16.350434    
    247500   1661.7286     -882.29125     -6198.1604      16.411257    
    248000   1814.5112     -881.18902      914.65643      16.37176     
    248500   1788.3317     -879.40327      1381.6416      16.373682    
    249000   1629.8747     -878.26638      1422.5666      16.374466    
    249500   1758.4509     -884.89501      1605.1385      16.372258    
    250000   1762.4939     -881.52733     -2161.2899      16.399274    
    250500   1757.345      -885.80888      9375.1509      16.338521    
    251000   1702.574      -879.36705     -13322.159      16.461459    
    251500   1781.8596     -890.37224      9982.2086      16.326532    
    252000   1760.7689     -886.39742     -1969.3328      16.398604    
    252500   1838.365      -884.37144      81.797289      16.380264    
    253000   1612.6437     -879.85419     -5002.8962      16.405738    
    253500   1833.4446     -882.76714      4568.2911      16.358397    
    254000   1680.0209     -887.68897     -3176.6324      16.390872    
    254500   1715.2099     -887.03111     -232.00102      16.389695    
    255000   1888.4469     -881.26385      3485.1885      16.380653    
    255500   1835.1738     -879.3389      -2516.3344      16.406229    
    256000   1676.4947     -881.65456      3661.6656      16.370638    
    256500   1818.2843     -875.99638     -8101.8808      16.45161     
    257000   1931.1124     -880.86832      13189.881      16.329333    
    257500   1845.831      -886.85547     -8409.8968      16.427803    
    258000   1829.6022     -882.89819      7844.9425      16.347155    
    258500   1708.9771     -884.72279     -8000.2513      16.422897    
    259000   1585.137      -885.70236      4087.6457      16.356747    
    259500   1870.8227     -888.17709     -3412.5393      16.40294     
    260000   1722.5461     -885.78882      3550.0975      16.363815    
    260500   1591.1086     -888.22495     -2752.306       16.395009    
    261000   1703.4056     -885.32085      4006.2034      16.354912    
    261500   1670.9012     -885.48205     -5794.2294      16.410922    
    262000   1747.1931     -886.57676      1319.9413      16.370629    
    262500   1681.6921     -883.27742      107.62196      16.392441    
    263000   1436.6478     -885.69014      674.15374      16.375837    
    263500   1614.2031     -885.83771     -1444.4509      16.387145    
    264000   1752.7908     -885.38213      379.60895      16.383462    
    264500   1707.4992     -887.30614      2998.9327      16.365527    
    265000   1769.554      -884.14696     -4037.5027      16.412323    
    265500   1569.3327     -884.73821      4087.9432      16.354148    
    266000   1885.8165     -882.14161     -1184.8827      16.398991    
    266500   1751.0953     -886.46496      4535.3664      16.362954    
    267000   1660.2249     -881.53157     -10306.581      16.436811    
    267500   1665.1562     -884.57231      8158.7042      16.333724    
    268000   1624.5875     -880.90361     -9608.108       16.442062    
    268500   1622.6623     -883.4686       6911.964       16.341858    
    269000   1813.5929     -885.01247     -6532.1919      16.426414    
    269500   1657.212      -883.25818      12302.306      16.310876    
    270000   1670.1245     -881.5602      -19938.534      16.49968     
    270500   1834.2887     -881.17735      13056.698      16.310879    
    271000   1771.4133     -888.62226     -7925.686       16.429095    
    271500   1814.6146     -882.735        6595.4167      16.341541    
    272000   1682.7268     -878.97798     -1769.7042      16.41119     
    272500   1831.8305     -881.52044      2821.1684      16.365323    
    273000   1738.4119     -879.69673      172.27467      16.387387    
    273500   1766.9314     -887.05165      259.03513      16.381564    
    274000   1622.6527     -883.46926     -907.91079      16.386041    
    274500   1806.6482     -879.77626      2233.3969      16.369664    
    275000   1966.4863     -883.33136     -3622.8226      16.411304    
    275500   1726.721      -884.28594      10447.258      16.322425    
    276000   1650.5672     -886.91291     -5807.9514      16.412093    
    276500   1877.3381     -886.00454      1938.2964      16.371821    
    277000   1683.862      -881.39499     -6783.7566      16.414207    
    277500   1829.737      -887.62263      7657.8671      16.342597    
    278000   1767.1065     -881.08304     -18371.557      16.49562     
    278500   1669.1792     -886.0671       13246.584      16.316823    
    279000   1627.5384     -889.58347     -5174.4533      16.41546     
    279500   1780.8835     -885.10052      6950.7082      16.34619     
    280000   1752.0239     -881.71266     -7490.2362      16.420048    
    280500   1722.5577     -885.15192      10101.708      16.310613    
    281000   1763.0405     -886.7035      -15566.635      16.47452     
    281500   1636.8531     -886.27039      7557.7276      16.327075    
    282000   1876.5391     -880.88797     -4499.3216      16.411322    
    282500   1629.9205     -881.40385      4699.7131      16.335139    
    283000   1601.3583     -885.20673     -3749.4279      16.400424    
    283500   1736.5909     -887.31319      1591.9734      16.374023    
    284000   1763.6403     -882.61187      1069.2348      16.381605    
    284500   1774.7617     -884.19012     -3543.7009      16.392497    
    285000   1636.0362     -885.9464       2654.3753      16.365069    
    285500   1745.9727     -884.49192     -7080.4871      16.428643    
    286000   1682.4941     -885.39337      8907.7309      16.335684    
    286500   1932.6458     -888.76614     -5506.2826      16.424305    
    287000   1511.569      -886.04219      4119.3677      16.35047     
    287500   1968.4626     -878.29638     -3751.297       16.399404    
    288000   1702.0525     -883.27029     -335.87931      16.378261    
    288500   1649.9249     -878.6499      -3978.8977      16.39483     
    289000   1841.7458     -884.23768      7689.6784      16.338799    
    289500   1871.717      -886.68376     -6447.7416      16.427053    
    290000   1685.1593     -880.65167      8470.6369      16.33294     
    290500   1596.8879     -885.75591     -3622.3444      16.388684    
    291000   1676.8335     -885.84734      4591.3189      16.367671    
    291500   1778.6707     -880.7797      -1848.4799      16.394242    
    292000   1780.8896     -882.37041     -3765.8719      16.407812    
    292500   1715.779      -879.34752      8796.7962      16.343525    
    293000   1605.8767     -879.61377     -12841.357      16.452437    
    293500   1844.3044     -879.76748      11905.868      16.332034    
    294000   1624.2727     -886.67901     -30.904154      16.366519    
    294500   1572.6665     -879.84759     -3757.8459      16.376366    
    295000   1598.0332     -886.15565      3237.9994      16.362436    
    295500   1609.9346     -889.95598     -3101.7872      16.400398    
    296000   1654.6649     -888.29793      321.55952      16.373109    
    296500   1566.088      -883.50636     -1373.1785      16.382124    
    297000   1697.6256     -887.35384     -1276.3205      16.371112    
    297500   1725.884      -884.49605      2457.981       16.365366    
    298000   1726.6851     -882.62491     -1796.792       16.391735    
    298500   1556.4915     -881.48584      332.20847      16.366661    
    299000   1849.7332     -880.84203     -2862.5956      16.388728    
    299500   1699.3665     -885.00321      6950.6433      16.343002    
    300000   1661.8119     -881.61536     -11743.591      16.446742    
    300500   1737.2026     -882.54194      18955.3        16.282866    
    301000   1688.5649     -881.69101     -8940.124       16.426501    
    301500   1639.3288     -883.96593      2756.3415      16.34443     
    302000   1876.8157     -881.62459     -3932.2476      16.413704    
    302500   1731.5402     -886.27674      7543.5262      16.344936    
    303000   1780.383      -885.92366     -5881.2549      16.418224    
    303500   1657.532      -884.92564      8556.1538      16.341403    
    304000   1676.9907     -886.84952     -6632.3191      16.423542    
    304500   1591.8439     -883.04772      2322.7426      16.365513    
    305000   1668.8722     -884.27702      60.393713      16.380066    
    305500   1797.0014     -884.57754     -98.052256      16.398948    
    306000   1600.0544     -886.62298      511.8225       16.378498    
    306500   1704.0183     -882.25772     -776.16419      16.392895    
    307000   1736.768      -886.68119      3631.2255      16.370431    
    307500   1848.9699     -887.91334      455.67823      16.380837    
    308000   1701.3781     -883.87786     -2394.114       16.387822    
    308500   1746.3423     -884.04471      3091.2875      16.3666      
    309000   1714.9847     -881.39505     -4392.0471      16.398922    
    309500   1948.0867     -879.76437      4643.651       16.361906    
    310000   1785.8279     -883.72059     -2809.5408      16.396748    
    310500   1763.478      -883.49974      1945.3466      16.380881    
    311000   1687.5772     -883.7993      -1702.9286      16.388618    
    311500   1590.875      -885.15318     -279.86753      16.385843    
    312000   1948.3327     -881.98315      2924.1298      16.373577    
    312500   1512.6916     -880.38692     -3372.6937      16.374754    
    313000   1623.8009     -883.2659       7988.9083      16.317833    
    313500   1713.9598     -879.05148     -7333.5319      16.419053    
    314000   1694.4586     -882.8426       9629.6974      16.333877    
    314500   1597.5453     -884.15376     -8784.9657      16.410468    
    315000   1843.4732     -879.40437      6322.407       16.345238    
    315500   1860.6753     -884.28539     -8300.0631      16.423425    
    316000   1869.9159     -881.98275      14542.578      16.295603    
    316500   1571.6911     -884.44454     -14271.857      16.458452    
    317000   1541.6329     -884.83727      5624.2638      16.343555    
    317500   1566.5366     -885.34177     -4336.807       16.403623    
    318000   1723.7173     -882.07864      757.89254      16.374134    
    318500   1687.9619     -882.92098     -2805.472       16.400149    
    319000   1784.1771     -889.07257      1040.4732      16.367742    
    319500   1838.8454     -879.92694     -694.40658      16.382291    
    320000   1733.0279     -887.01569      1475.8056      16.37332     
    320500   1797.4888     -882.96496     -1012.341       16.38499     
    321000   1964.2019     -885.10445      5740.323       16.366694    
    321500   1605.203      -882.20389     -4080.3213      16.387519    
    322000   1761.0341     -883.06018     -489.96088      16.378527    
    322500   1618.0077     -886.2713      -1807.7732      16.372612    
    323000   1738.0983     -887.18558     -489.96023      16.375966    
    323500   1719.1053     -888.70348      1602.6814      16.373711    
    324000   1738.0453     -883.89581      1603.6669      16.376435    
    324500   1695.3949     -885.32645      1215.0715      16.376672    
    325000   1827.8168     -882.68997     -541.29565      16.38447     
    325500   1819.7225     -884.68886     -1576.5455      16.404232    
    326000   1598.5463     -882.98291      1318.1391      16.372093    
    326500   1725.1303     -883.17081      1010.9084      16.387125    
    327000   1710.7209     -884.79633      492.91778      16.382425    
    327500   1640.5349     -884.59309      1398.0519      16.377083    
    328000   1639.7233     -886.47155     -811.12635      16.388081    
    328500   1522.6133     -883.01884      907.00147      16.363993    
    329000   1738.4092     -881.01084     -2691.2044      16.395089    
    329500   1966.8386     -887.00372      8839.8689      16.336423    
    330000   1771.947      -881.65228     -10364.134      16.44487     
    330500   1553.0126     -878.84181      5478.197       16.341256    
    331000   1745.5475     -886.25309     -7412.4493      16.425389    
    331500   1581.9361     -884.42935      4312.4746      16.358095    
    332000   1528.8882     -884.65357     -2317.2139      16.392029    
    332500   1647.3517     -878.53336     -2061.1797      16.383615    
    333000   1706.5226     -882.821       -3824.5137      16.393383    
    333500   1670.4543     -887.07298      5242.8263      16.354854    
    334000   1879.0556     -883.18389     -6363.9251      16.432179    
    334500   1789.066      -881.53179      8591.7633      16.331831    
    335000   1798.5903     -881.4906      -4572.9688      16.418689    
    335500   1647.0214     -883.35366      3971.7065      16.350875    
    336000   1641.8883     -886.9935      -3196.8737      16.394406    
    336500   1502.0599     -883.0236      -653.95776      16.365369    
    337000   1876.9541     -886.63255     -367.5453       16.380553    
    337500   1873.0356     -891.04757      892.09597      16.377441    
    338000   1702.617      -884.67108      2492.0715      16.359977    
    338500   1554.0632     -884.5782      -2955.8399      16.403421    
    339000   1695.1784     -880.37253      5818.4323      16.345911    
    339500   1715.1325     -883.57637     -5711.5393      16.41147     
    340000   1695.1091     -882.39945      5793.6706      16.341285    
    340500   1785.3037     -887.88858     -4655.6134      16.400163    
    341000   1793.7702     -882.52746      7204.9039      16.349092    
    341500   1898.5993     -884.56059     -3771.3933      16.405745    
    342000   1695.9736     -877.83604      11211.912      16.302292    
    342500   1677.0888     -886.68637     -15307.148      16.47692     
    343000   1795.3632     -885.22648      8251.9409      16.345602    
    343500   1635.5349     -883.15354     -4028.429       16.412527    
    344000   1634.0045     -884.8045       4718.3411      16.348805    
    344500   1857.5293     -884.19987     -15853.093      16.476199    
    345000   1795.0421     -879.74467      16835.661      16.298614    
    345500   1767.9369     -885.3851      -7173.256       16.437845    
    346000   1992.0205     -875.60116      8418.3902      16.360704    
    346500   1710.7959     -883.07057     -9488.4644      16.451687    
    347000   1716.8819     -886.48617      17097.935      16.290351    
    347500   1707.7422     -885.68452     -10651.487      16.449698    
    348000   1657.6183     -889.24108      5164.9975      16.345028    
    348500   1720.3659     -885.50374     -4625.9938      16.417286    
    349000   1627.8422     -883.08728      2768.5273      16.359149    
    349500   1751.345      -885.50987     -3440.7979      16.408643    
    350000   1666.949      -881.9628       1409.8662      16.365115    
    350500   1674.0512     -884.71386     -3780.6682      16.383617    
    351000   1660.1818     -886.7634       1538.4948      16.37632     
    351500   1652.9049     -882.0082      -73.101933      16.370633    
    352000   1635.1852     -881.21485     -1167.8232      16.385048    
    352500   1804.4828     -886.8977       61.879598      16.374447    
    353000   1647.8744     -882.90983     -3168.5718      16.384303    
    353500   1595.1324     -882.22454     -1901.8373      16.376845    
    354000   1739.4155     -880.07319     -1443.3888      16.372237    
    354500   1660.7299     -889.68249     -1497.0977      16.381774    
    355000   1717.3837     -877.35108     -2351.8083      16.396771    
    355500   1638.6198     -885.3162       1312.6788      16.372556    
    356000   1716.0677     -878.23657     -2407.3936      16.409234    
    356500   1716.4929     -888.50829      4895.3438      16.356145    
    357000   1647.2015     -880.45357     -7105.6202      16.423294    
    357500   1659.7953     -890.68124      8928.3683      16.330156    
    358000   1760.516      -885.40206     -2306.6449      16.397213    
    358500   1711.7972     -887.52727      4686.589       16.355158    
    359000   1872.6028     -883.93817     -2673.4091      16.395349    
    359500   1671.5778     -883.14484      8465.6104      16.332308    
    360000   1729.0854     -881.67401     -14811.023      16.466931    
    360500   1653.5812     -883.88922      9385.2767      16.320086    
    361000   1863.6534     -891.38468     -4711.007       16.411313    
    361500   1823.2225     -887.2342       12142.269      16.315585    
    362000   1714.1793     -884.28886     -6532.167       16.427623    
    362500   1678.7733     -886.13107      10889.392      16.322743    
    363000   1715.7365     -886.25772     -13075.755      16.456029    
    363500   1783.3317     -886.28431      6627.7494      16.345025    
    364000   1906.161      -884.87022      522.4786       16.393528    
    364500   1679.9667     -883.93005      4297.2056      16.356706    
    365000   1620.5625     -879.2762      -5092.5044      16.393885    
    365500   1727.9618     -887.03181      4296.0846      16.35398     
    366000   1747.2978     -878.63669     -1845.4853      16.386148    
    366500   1801.5866     -880.44165     -5418.969       16.40779     
    367000   1771.0414     -878.54273      2341.2731      16.369375    
    367500   1774.9387     -881.87069     -3796.9681      16.406544    
    368000   1630.8495     -885.3756       1305.7802      16.379795    
    368500   1684.8404     -885.38613     -3160.9727      16.40187     
    369000   1851.0617     -880.71225      1513.5263      16.373065    
    369500   1740.1273     -887.08683     -5784.6677      16.408507    
    370000   1642.0776     -887.73351      15991.719      16.290474    
    370500   1921.2366     -887.67819     -13563.5        16.456968    
    371000   1605.6899     -878.36041      8227.202       16.316452    
    371500   1705.5839     -879.77557     -6255.3371      16.405546    
    372000   1637.1636     -885.55422      2621.8263      16.354982    
    372500   1814.9397     -881.53324     -1544.2986      16.396602    
    373000   1859.6964     -884.15793      3664.2607      16.358412    
    373500   1908.8161     -881.81921     -1168.5283      16.392647    
    374000   1593.496      -879.62727      5096.9771      16.35007     
    374500   1584.3559     -880.7822      -9309.9006      16.424115    
    375000   1744.2411     -883.57569      8995.1254      16.32766     
    375500   1790.0372     -882.86449     -10382.052      16.431384    
    376000   1834.5568     -887.50476      11747.989      16.306347    
    376500   1770.3124     -888.62526     -7346.8642      16.41692     
    377000   1728.9399     -889.91488      5579.3687      16.348644    
    377500   1685.917      -883.99667      201.50742      16.389688    
    378000   1741.5275     -887.39331      4108.8204      16.364872    
    378500   1694.2345     -882.93831     -7131.0655      16.408847    
    379000   1822.6001     -887.61095      3285.5051      16.360386    
    379500   1722.4031     -881.93883     -741.77498      16.381801    
    380000   1731.081      -884.14349     -87.335789      16.383407    
    380500   1754.8405     -885.68227     -129.05589      16.373914    
    381000   1590.4272     -888.10734     -1972.4775      16.382916    
    381500   1764.3516     -880.86175      1291.5046      16.374385    
    382000   1748.3775     -885.09856      871.38952      16.379615    
    382500   1754.3905     -882.97551      1686.8375      16.361643    
    383000   1733.8519     -881.82879     -1977.0274      16.395152    
    383500   1918.5618     -882.74839      7359.6933      16.341673    
    384000   1739.176      -879.70026     -4400.6146      16.407335    
    384500   1653.2611     -881.14917      5793.8911      16.332905    
    385000   1686.1161     -879.93267     -8847.7128      16.421426    
    385500   1658.6324     -886.88155      11502.122      16.308254    
    386000   1847.6268     -888.44058     -10728.12       16.442129    
    386500   1743.678      -882.44413      14588.553      16.298391    
    387000   1753.6311     -877.39173     -14834.897      16.471291    
    387500   1644.9811     -884.26468      5670.7309      16.351928    
    388000   1762.2875     -886.14539     -2188.9531      16.399965    
    388500   1520.4864     -887.29075      2792.4482      16.36248     
    389000   1726.4704     -884.97792     -5103.1078      16.417463    
    389500   1626.8741     -888.88576      10553.791      16.316796    
    390000   1731.8202     -880.65121     -8651.271       16.439303    
    390500   1798.9077     -886.31114      6510.6731      16.335979    
    391000   1607.7691     -886.65495     -4445.4232      16.403597    
    391500   1820.1803     -893.86067      6249.2933      16.352031    
    392000   1640.4845     -881.74946     -747.56493      16.385741    
    392500   1831.777      -884.22306      842.99452      16.383094    
    393000   1625.8858     -887.09724      1042.8595      16.376704    
    393500   1924.8823     -887.65849     -1509.5361      16.39565     
    394000   1648.9276     -887.20215      7809.9944      16.340179    
    394500   1733.3192     -887.59657     -7789.6127      16.427327    
    395000   1668.1439     -884.88107      11597.742      16.31809     
    395500   1699.951      -882.35377     -8373.5184      16.434959    
    396000   1596.9062     -889.18764      2626.5073      16.356993    
    396500   1830.2717     -879.45725     -477.19431      16.397411    
    397000   1630.7424     -886.21161      2390.9363      16.35626     
    397500   1716.2913     -884.92531     -7341.0064      16.407133    
    398000   1810.0427     -881.84389      13999.688      16.299154    
    398500   1592.0207     -886.51032     -9891.0673      16.428949    
    399000   1663.7874     -884.23738      9159.4451      16.330641    
    399500   1694.3748     -884.23669     -5432.9231      16.409585    
    400000   1729.05       -876.30746      3349.4494      16.353226    
    400500   1747.9239     -885.87942     -10644.135      16.431401    
    401000   1590.2113     -881.35816      13370.51       16.292253    
    401500   1610.5828     -884.22061     -10826.775      16.429501    
    402000   1660.0954     -882.14188      3351.5366      16.357385    
    402500   1652.2213     -882.71654      1746.1665      16.385483    
    403000   1875.5292     -885.89581      721.72825      16.394877    
    403500   1606.339      -881.62717      2211.5715      16.3651      
    404000   1695.9973     -882.50064     -7594.3977      16.426576    
    404500   1787.1743     -882.56048      11135.754      16.327679    
    405000   1638.391      -883.29577     -8680.7571      16.427777    
    405500   1862.2704     -883.46931      7262.3422      16.338699    
    406000   1703.5925     -883.85681     -1985.6527      16.398036    
    406500   1667.8439     -880.16131      1981.3959      16.378597    
    407000   1704.7097     -889.71274     -1669.6014      16.390107    
    407500   1848.9583     -891.325        8682.6633      16.335392    
    408000   1722.6693     -883.81538     -10035.059      16.430829    
    408500   1735.855      -883.26888      5067.0921      16.344832    
    409000   1581.703      -879.74687     -4986.3185      16.397987    
    409500   1600.0524     -881.34507      1390.6102      16.359245    
    410000   1739.598      -884.52643     -4051.8437      16.407322    
    410500   1597.3059     -881.76089      9180.593       16.324579    
    411000   1816.426      -883.61898     -2850.4752      16.399099    
    411500   1784.1118     -879.10382      29.311909      16.38066     
    412000   1748.1065     -882.42877     -5041.0528      16.396475    
    412500   1686.7073     -884.77415      3356.8352      16.355451    
    413000   1634.9814     -881.96287     -9185.0018      16.412363    
    413500   1630.709      -881.74885      9119.1752      16.324137    
    414000   1596.2099     -884.11665     -4713.4241      16.409396    
    414500   1591.9109     -885.62455     -60.988505      16.369044    
    415000   1664.3199     -882.41183     -594.97617      16.373887    
    415500   2001.2011     -883.41935      3563.7552      16.369491    
    416000   1630.3358     -882.92567     -1841.3292      16.397805    
    416500   1754.037      -887.95363      2557.7946      16.355827    
    417000   1793.893      -883.56471     -7829.5004      16.422771    
    417500   1795.5879     -887.33855      11445.864      16.319439    
    418000   1732.5212     -881.42675     -5344.9846      16.409953    
    418500   1799.6613     -881.10187      3903.6302      16.370132    
    419000   1624.6918     -884.28183     -4310.4292      16.389348    
    419500   1799.967      -882.99575      5762.2547      16.345968    
    420000   1533.4318     -883.52827     -6505.3188      16.40904     
    420500   1661.2182     -882.01372     -107.83037      16.370253    
    421000   1514.3202     -874.35118     -415.96526      16.369483    
    421500   1673.2249     -886.37653     -4207.4734      16.406735    
    422000   1727.2247     -881.45048      11398.303      16.30123     
    422500   1741.7133     -880.21348     -19903.972      16.478843    
    423000   1697.2823     -888.97962      9420.0551      16.332148    
    423500   1856.5867     -883.10993     -4439.6121      16.423876    
    424000   1637.8006     -886.82579      9012.7466      16.328927    
    424500   1612.4617     -872.94751     -12108.835      16.451455    
    425000   1700.4987     -885.08708      20620.087      16.271731    
    425500   1753.9349     -885.12175     -11494.747      16.437637    
    426000   1872.1585     -882.75981      4938.8763      16.358973    
    426500   1754.5283     -886.66999     -4660.4311      16.405114    
    427000   1634.1247     -884.1001       7706.0973      16.325357    
    427500   1982.1601     -887.61821     -14247.07       16.474834    
    428000   1642.0739     -888.09128      8898.3355      16.306973    
    428500   1769.1686     -881.74238     -856.98184      16.390175    
    429000   1609.0447     -882.67422     -1330.3201      16.383886    
    429500   1914.9278     -885.19933      4555.7874      16.364555    
    430000   1694.7916     -885.46815     -11496.426      16.440266    
    430500   1596.2842     -881.97087      12861.039      16.303405    
    431000   1863.0195     -881.81975     -10639.237      16.450277    
    431500   1657.6918     -884.09964      8045.4079      16.330159    
    432000   1632.9488     -883.08774     -7015.803       16.418691    
    432500   1678.7889     -879.5533       11475.931      16.311993    
    433000   1615.198      -886.29188     -11870.31       16.439608    
    433500   1803.3747     -878.95106      11238.785      16.317559    
    434000   1812.1866     -885.18885     -5682.4725      16.410794    
    434500   1805.3106     -885.12307      1511.3869      16.3696      
    435000   1770.405      -876.5027      -4898.9209      16.424843    
    435500   1798.4705     -885.32294      8822.1499      16.334242    
    436000   1614.2497     -887.10585     -14061.222      16.458749    
    436500   1799.9817     -884.59766      16970.149      16.293046    
    437000   1624.2771     -884.41384     -11633.923      16.454633    
    437500   1824.5032     -886.2514       6246.7513      16.347101    
    438000   1640.7611     -882.78784     -5258.7495      16.419905    
    438500   1664.2575     -883.63141      5541.3476      16.357886    
    439000   1958.008      -882.3877      -14093.928      16.485947    
    439500   1473.7229     -883.89956      6410.6232      16.336948    
    440000   1870.9505     -882.08653     -2312.0621      16.399681    
[...]
    871500   1618.7568     -878.68679      5213.3446      16.354142    
    872000   1590.4695     -883.11325     -3064.2692      16.404378    
    872500   1668.6911     -886.13089      1314.7891      16.371653    
    873000   1671.6899     -891.09069      952.5664       16.369597    
    873500   1526.9341     -887.13653     -4219.9772      16.396115    
    874000   1805.9264     -886.26074      1723.1419      16.369254    
    874500   1654.6272     -884.52015      395.56108      16.390849    
    875000   1736.424      -885.30933      2602.4109      16.36841     
    875500   1728.3569     -879.3001      -4547.339       16.407736    
    876000   1417.0022     -891.42835      12901.844      16.287257    
    876500   1774.4315     -884.7972      -13256.676      16.452168    
    877000   1705.3515     -887.26705      8242.6699      16.336495    
    877500   1738.0144     -888.2893      -3554.4034      16.400055    
    878000   1704.0181     -888.09764      1576.782       16.357043    
    878500   1756.9255     -882.08672     -9562.4629      16.432084    
    879000   1782.809      -885.8288       11202.617      16.315372    
    879500   1659.1914     -885.69263     -5843.8453      16.424705    
    880000   1783.698      -885.65587      319.58893      16.36638     
    880500   1726.0822     -881.47635     -1464.0515      16.385327    
    881000   1790.8479     -886.28607      283.16056      16.377823    
    881500   1758.431      -884.99331      4136.193       16.347629    
    882000   1667.0375     -882.95577     -3262.4711      16.381689    
    882500   1603.5619     -877.99508      3991.4795      16.371446    
    883000   1589.8649     -887.38735     -462.48664      16.377314    
    883500   1649.1452     -884.4829       5180.2936      16.356348    
    884000   1806.9917     -886.12013     -7027.6729      16.431048    
    884500   1892.2692     -884.5387       6194.6556      16.336573    
    885000   1792.2552     -882.40024     -4894.4359      16.415822    
    885500   1664.325      -878.37859      5989.1834      16.349223    
    886000   1693.4953     -886.49863     -7417.4022      16.421453    
    886500   1733.8899     -882.32623      4616.0983      16.353435    
    887000   1633.5102     -888.72764     -4118.7386      16.399537    
    887500   1685.3726     -884.95781      3067.8574      16.369474    
    888000   1611.3477     -884.59266     -5895.3344      16.405557    
    888500   1585.5641     -886.45437      7500.7038      16.335923    
    889000   1842.9321     -884.06711     -4100.9089      16.421012    
    889500   1623.6414     -886.94706      3792.2945      16.353986    
    890000   1859.3517     -884.0173      -1975.6154      16.406996    
    890500   1837.5741     -888.47547      4288.4543      16.368785    
    891000   1752.6255     -883.88043     -2330.8923      16.398986    
    891500   1788.4188     -883.97037      1127.5196      16.385409    
    892000   1557.5033     -880.44486     -1264.6627      16.380689    
    892500   1539.8721     -882.49973     -3665.0182      16.403536    
    893000   1640.4271     -879.27583      4212.5038      16.367311    
    893500   1720.5104     -884.76913     -1855.2392      16.401896    
    894000   1637.4736     -883.89217      1216.1419      16.378132    
    894500   1641.8856     -886.96682     -599.18298      16.393611    
    895000   1795.8224     -886.78438      4791.5799      16.359534    
    895500   1839.8477     -880.99037     -10859.386      16.447831    
    896000   1770.0917     -882.03343      13205.793      16.30613     
    896500   1759.8185     -885.29197     -9540.4475      16.441983    
    897000   1737.2588     -881.4455       5798.0702      16.355175    
    897500   1766.0131     -883.71829     -1499.8571      16.403182    
    898000   1832.5946     -885.30299      2541.9521      16.376892    
    898500   1684.7305     -888.01145     -2749.0111      16.396246    
    899000   1702.0397     -882.39005     -1162.488       16.38964     
    899500   1782.0504     -885.80689     -1346.3745      16.385788    
    900000   1743.2076     -885.59655      2716.6385      16.367963    
    900500   1811.4293     -882.93518      108.06115      16.384174    
    901000   1667.5533     -886.41553      934.16773      16.377361    
    901500   1708.543      -884.51847     -6613.5294      16.41429     
    902000   1618.6327     -882.29928      3533.5691      16.351321    
    902500   1625.4499     -883.01331     -9244.1354      16.430207    
    903000   1877.9074     -879.09331      3724.0735      16.373007    
    903500   1677.7104     -881.62733     -886.00882      16.384545    
    904000   1690.3572     -889.34364     -2291.5519      16.394097    
    904500   1604.3714     -887.10203     -1430.0574      16.379058    
    905000   1783.1981     -885.1231       4827.8688      16.350328    
    905500   1599.6123     -884.05795     -10298.61       16.426626    
    906000   1642.0798     -879.09205      5151.2438      16.360571    
    906500   1753.7631     -881.09676     -2053.7801      16.399257    
    907000   1822.774      -885.67677      1035.2761      16.381767    
    907500   1786.4512     -884.51697     -4720.1459      16.402293    
    908000   1597.997      -886.59278      5582.1565      16.342523    
    908500   1628.7766     -891.70526     -4679.1191      16.405581    
    909000   1757.8715     -888.61271      5225.6522      16.348369    
    909500   1772.653      -882.59037     -3928.0572      16.38471     
    910000   1610.9984     -886.97045      7127.7273      16.335539    
    910500   1674.6197     -882.4182      -3993.8218      16.397522    
    911000   1716.9404     -882.58758      305.25834      16.374357    
    911500   1822.9517     -879.58854     -1344.6238      16.387624    
    912000   1741.6299     -883.69729      1873.2197      16.370677    
    912500   1724.6693     -886.51485      440.61493      16.378193    
    913000   1898.6025     -883.84793     -2546.5648      16.381396    
    913500   1632.8915     -888.95615      806.52698      16.362782    
    914000   1615.3379     -883.00392     -2216.132       16.368951    
    914500   1569.9781     -886.28345      245.71845      16.360108    
    915000   1806.1144     -884.74991     -4326.7851      16.410378    
    915500   1979.3326     -884.13951      14636.733      16.313411    
    916000   1712.0685     -887.43012     -6515.0193      16.411081    
    916500   1804.1108     -885.58807      6084.0697      16.354613    
    917000   1640.3564     -886.28534     -5666.0383      16.399992    
    917500   1719.9875     -878.18841      8565.0219      16.331742    
    918000   1689.0044     -883.85255     -16032.257      16.472507    
    918500   1558.288      -887.35263      13544.135      16.294147    
    919000   1700.7932     -886.85108     -8581.3901      16.415063    
    919500   1595.1339     -881.33526      6715.6914      16.317019    
    920000   1580.2091     -885.43121     -10552.667      16.430943    
    920500   1688.7532     -882.71755      19261.155      16.270352    
    921000   1599.2662     -881.65231     -9951.7057      16.428747    
    921500   1748.405      -878.41903      3548.1792      16.359596    
    922000   1801.5559     -886.46119     -2359.8899      16.392791    
    922500   1793.8247     -881.38775      2738.9857      16.366416    
    923000   1728.7504     -882.91428     -3355.9753      16.391598    
    923500   1905.7957     -882.74047      2411.0705      16.373885    
    924000   1721.5669     -886.70877      2967.7647      16.360547    
    924500   1731.7703     -883.65295     -1541.804       16.386373    
    925000   1767.8342     -885.112        25.306494      16.361969    
    925500   1690.2698     -884.46306      753.26879      16.384996    
    926000   1896.831      -881.726        3800.29        16.371401    
    926500   1747.3807     -885.86933     -2063.4047      16.392221    
    927000   1571.5235     -883.39118      3103.2261      16.354837    
    927500   1668.2015     -881.76811     -10422.763      16.443012    
    928000   1756.123      -878.67677      13088.163      16.329959    
    928500   1790.5471     -887.31741     -11888.474      16.453932    
    929000   1710.1637     -886.39863      11501.655      16.324214    
    929500   1721.5074     -886.91879     -4972.5611      16.415641    
    930000   1701.4984     -881.36571      4649.5491      16.363643    
    930500   1660.2486     -884.24522     -4589.3256      16.407277    
    931000   1771.0468     -883.84219      7064.3297      16.343179    
    931500   1678.5998     -885.25402     -9165.4663      16.443311    
    932000   1658.7117     -884.75871      6563.348       16.336819    
    932500   1646.1065     -881.11842     -4455.6749      16.414187    
    933000   1628.3742     -884.96733      5001.4797      16.357098    
    933500   1764.0856     -885.97516     -2708.2363      16.41408     
    934000   1723.2515     -885.94121      5473.0006      16.363979    
    934500   1746.4134     -886.03108     -3799.064       16.40809     
    935000   1869.0817     -889.35808      668.90224      16.374843    
    935500   1690.0947     -883.44865      414.29614      16.383006    
    936000   1835.4614     -878.95217     -1180.0128      16.39681     
    936500   1646.623      -885.4105       5723.5659      16.352154    
    937000   1778.454      -886.8556      -3412.4595      16.402602    
    937500   1679.6314     -880.78933      4316.0907      16.358696    
    938000   1719.9938     -883.96711     -7283.3507      16.415855    
    938500   1768.0081     -884.7993       3945.0082      16.354272    
    939000   1589.6505     -888.42982     -6928.1515      16.42297     
    939500   1751.6669     -880.05677      16203.442      16.295641    
    940000   1791.5707     -883.33686     -12957.385      16.464237    
    940500   1911.1474     -881.73612      8849.5142      16.336219    
    941000   1835.5811     -883.13438     -7251.0932      16.418344    
    941500   1694.7516     -881.11686      6248.2311      16.358527    
    942000   1580.0909     -886.17675     -6603.2526      16.415414    
    942500   1686.6233     -885.57991      9118.6858      16.320248    
    943000   1787.0865     -879.38575     -11086.418      16.44604     
    943500   1630.5259     -882.53435      6712.0151      16.332874    
    944000   1692.4813     -888.83914     -2654.3172      16.38928     
    944500   1672.3553     -885.58192      3047.5055      16.361503    
    945000   1802.5215     -882.94906     -1369.114       16.396163    
    945500   1800.3004     -880.23266      6720.4437      16.346845    
    946000   1736.1555     -883.83993     -6966.139       16.411151    
    946500   1795.1211     -887.85437      749.07253      16.37273     
    947000   1877.0863     -885.8646       724.99876      16.38387     
    947500   1922.206      -884.70609     -617.09379      16.401238    
    948000   1808.9175     -877.7255       3382.1612      16.356814    
    948500   1622.0249     -875.6056      -12718.255      16.457777    
    949000   1642.9061     -888.68533      10736.308      16.317535    
    949500   1728.2314     -879.6927      -7403.7244      16.428219    
    950000   1857.948      -885.83246      9233.8655      16.338818    
    950500   1772.4103     -880.99611     -8725.5537      16.436651    
    951000   1728.9444     -884.37304      15346.395      16.298205    
    951500   1820.7559     -880.8047      -14960.099      16.471069    
    952000   1863.3692     -885.73238      7912.9994      16.350476    
    952500   1698.4155     -880.92037     -1163.714       16.410965    
    953000   1688.5102     -883.49305      3708.0624      16.362583    
    953500   1623.5597     -887.69925     -8867.0606      16.438439    
    954000   1763.3904     -878.00922      8430.6011      16.33517     
    954500   1852.2677     -883.58404     -1067.7988      16.399454    
    955000   1794.8906     -885.65839      3225.1085      16.376075    
    955500   1709.2072     -881.743        888.75646      16.383807    
    956000   1633.6438     -889.40916     -2241.2721      16.391915    
    956500   1671.6242     -890.31264      7601.6245      16.335356    
    957000   1726.4595     -885.84423     -4523.4958      16.393565    
    957500   1667.3695     -881.29837     -1464.6934      16.377601    
    958000   1865.5683     -884.27074     -3380.9691      16.400457    
    958500   1771.6279     -885.42985      3341.51        16.363288    
    959000   1741.6606     -888.50499     -5567.932       16.417744    
    959500   1816.9082     -885.00351      11387.567      16.315669    
    960000   1802.174      -877.99233     -11566.125      16.448506    
    960500   1789.6216     -885.57145      7442.9003      16.329111    
    961000   1755.9434     -889.29338     -4997.4645      16.417929    
    961500   1762.4799     -890.28711      7816.1387      16.332597    
    962000   1764.9356     -880.54735     -251.55435      16.381398    
    962500   1812.9446     -887.65786      485.86154      16.372505    
    963000   1620.9965     -882.81249      617.07754      16.369564    
    963500   1784.7066     -884.00133     -5781.8158      16.4228      
    964000   1685.1878     -886.37791      7142.8934      16.350138    
    964500   1778.7337     -885.05986     -2945.3639      16.412556    
    965000   1748.5113     -880.28443      2233.718       16.384944    
    965500   1724.8143     -884.97281     -4117.3637      16.410988    
    966000   1799.1869     -888.97679      3124.2054      16.37213     
    966500   1663.6664     -883.39018     -3976.4418      16.408847    
    967000   1868.1622     -885.84493      9216.0965      16.334333    
    967500   1657.7418     -883.27873     -12637.995      16.458242    
    968000   1837.693      -881.05222      10776.631      16.324135    
    968500   1772.6041     -884.56313     -9111.0664      16.417762    
    969000   1680.7783     -880.18268      4720.5479      16.338158    
    969500   1608.4198     -885.64101     -9939.6526      16.428464    
    970000   1687.9664     -883.83791      17435.714      16.27745     
    970500   1911.812      -881.79486     -17762.041      16.49549     
    971000   1803.2737     -884.15119      10225.178      16.321659    
    971500   1681.0947     -879.87782     -6190.0352      16.417892    
    972000   1707.763      -885.4233       5141.0379      16.350922    
    972500   1860.4291     -885.46031     -5260.2342      16.424182    
    973000   1784.9136     -882.24085      12058.913      16.316126    
    973500   1607.8512     -882.91473     -7822.0364      16.426697    
    974000   1765.5154     -879.92848     -238.36336      16.375161    
    974500   1704.7289     -879.6766      -2690.616       16.393094    
    975000   1830.2548     -882.94253     -3885.5335      16.415589    
    975500   1798.738      -886.63217      6554.3876      16.352868    
    976000   1849.854      -887.38517     -1912.3734      16.399367    
    976500   1711.2751     -884.2668       890.75469      16.376668    
    977000   1743.6701     -884.90061     -3902.2698      16.416333    
    977500   1680.8016     -886.77431      5263.0658      16.346762    
    978000   1589.1062     -883.88367     -8459.1836      16.43859     
    978500   1857.5322     -878.29644      9703.6076      16.334545    
    979000   1555.3281     -877.21324     -12240.987      16.43927     
    979500   1731.2552     -885.75252      6023.4735      16.347746    
    980000   1638.7817     -885.92024     -4492.9353      16.411069    
    980500   1689.8454     -879.89198     -450.36714      16.384357    
    981000   1689.1765     -883.9583      -4611.1184      16.415104    
    981500   1718.4274     -879.91333      3192.3378      16.361061    
    982000   1776.8334     -884.4334      -1101.2209      16.393561    
    982500   1688.8026     -882.92606      0.46610006     16.379189    
    983000   1656.5468     -881.58331     -3404.2634      16.39465     
    983500   1677.9075     -888.15182      3038.0821      16.360242    
    984000   1567.5147     -888.88053     -5691.1467      16.41878     
    984500   1700.223      -885.75652      12033.085      16.320173    
    985000   1646.498      -889.91759     -10301.761      16.436076    
    985500   1879.3117     -881.68425      8567.326       16.339306    
    986000   1642.3889     -883.77949     -3102.5944      16.400679    
    986500   1827.4182     -885.24553      1847.0476      16.382563    
    987000   1734.4419     -884.98902     -4699.5015      16.404602    
    987500   1888.945      -885.86506      5887.9512      16.346129    
    988000   1473.766      -881.45048     -10641.785      16.43717     
    988500   1999.0386     -877.18079      11459.601      16.331565    
    989000   1752.5426     -886.99935     -9661.6958      16.434282    
    989500   1775.81       -884.44812      5474.2635      16.349698    
    990000   1649.9658     -883.59372     -4709.2443      16.399417    
    990500   1750.8407     -882.21474      2729.8031      16.36034     
    991000   1780.0132     -884.16808     -4119.3649      16.399333    
    991500   1779.2624     -885.65645      4047.3604      16.344539    
    992000   1894.5922     -887.18931     -201.19119      16.372122    
    992500   1647.867      -881.12198      269.08952      16.384783    
    993000   1847.4819     -885.59311      2195.8848      16.366483    
    993500   1687.2297     -884.784       -10066.722      16.424994    
    994000   1839.0833     -883.59192      9518.4941      16.325861    
    994500   1939.1034     -890.12409     -6800.3887      16.420683    
    995000   1536.2833     -887.37687      3703.8448      16.347491    
    995500   1685.3905     -882.60406     -4092.1357      16.40348     
    996000   1693.0531     -884.73963      792.75653      16.3591      
    996500   1656.6363     -884.38409     -5662.5583      16.418565    
    997000   1718.9985     -887.24259      11386.816      16.317552    
    997500   1569.8551     -885.90128     -6103.1907      16.414129    
    998000   1735.3972     -889.15002      5492.4084      16.348963    
    998500   1661.7903     -879.33325     -4009.364       16.395787    
    999000   1699.3587     -883.92433      6183.0077      16.342558    
    999500   1620.303      -885.59353     -5575.8915      16.422216    
   1000000   1719.5635     -887.78608      5390.1229      16.345234    
Loop time of 79.5086 on 12 procs for 1000000 steps with 216 atoms

Performance: 2173.350 ns/day, 0.011 hours/ns, 12577.256 timesteps/s
99.4% CPU use with 12 MPI tasks x 1 OpenMP threads

MPI task timing breakdown:
Section |  min time  |  avg time  |  max time  |%varavg| %total
---------------------------------------------------------------
Pair    | 30.144     | 30.74      | 31.203     |   5.9 | 38.66
Bond    | 0.040471   | 0.046681   | 0.050375   |   1.3 |  0.06
Neigh   | 1.2187     | 1.2506     | 1.2925     |   1.6 |  1.57
Comm    | 26.628     | 27.653     | 28.751     |  14.1 | 34.78
Output  | 2.0086     | 2.013      | 2.0263     |   0.3 |  2.53
Modify  | 15.049     | 15.594     | 16.106     |  10.1 | 19.61
Other   |            | 2.212      |            |       |  2.78

Nlocal:             18 ave          22 max          15 min
Histogram: 1 1 3 0 2 4 0 0 0 1
Nghost:         348.75 ave         354 max         344 min
Histogram: 2 1 0 2 0 2 2 0 1 2
Neighs:              0 ave           0 max           0 min
Histogram: 12 0 0 0 0 0 0 0 0 0
FullNghs:        643.5 ave         793 max         537 min
Histogram: 1 1 3 1 1 4 0 0 0 1

Total # of neighbors = 7722
Ave neighs/atom = 35.75
Ave special neighs/atom = 0
Neighbor list builds = 28085
Dangerous builds = 0

unfix		3
unfix		2
unfix		1

write_data	data.final
System init for write_data ...
Total wall time: 0:01:23
