LAMMPS data file via write_data, version 23 Jun 2022, timestep = 1000000

216 atoms
1 atom types

0.17357497694893095 16.118525023048036 xlo xhi
0.17357497694893095 16.118525023048036 ylo yhi
0.17357497694893095 16.118525023048036 zlo zhi

Masses

1 28.0855

Atoms # full

177 0 1 0 2.018175272168619 2.898272550610747 2.5283936743799122 0 -4 9
200 0 1 0 1.9271372004579725 1.2167820902613984 4.072608342390506 6 -4 -2
116 0 1 0 5.727918611736518 1.125116571933745 3.2068721333676264 1 9 0
5 0 1 0 5.192422212250568 3.592827403953148 5.261847422361904 1 -5 -4
165 0 1 0 5.611135220317403 3.728798539211032 2.6096404463008374 1 0 4
39 0 1 0 3.817646049761451 1.6723121033331005 1.2587722211955494 1 6 1
104 0 1 0 4.224425892351994 0.6054401688322559 5.447862065424866 -5 -3 1
11 0 1 0 9.487428393712225 1.4698398211492487 1.6756393297464645 -2 -6 -7
186 0 1 0 8.839998495303183 3.578807591215909 0.5614975056999718 -6 -7 9
201 0 1 0 9.029491369063104 4.047784443097106 4.310688800986031 0 5 5
50 0 1 0 8.087828561667003 1.7791254047985048 3.7501131225627775 -5 -3 -4
208 0 1 0 11.935779815442595 2.3874275845603132 2.2570076599995073 -2 0 -8
132 0 1 0 11.625304011667666 4.0701767692478645 3.8155884687427126 -4 2 -6
109 0 1 0 12.249292063016695 3.7242056385802726 0.5065416464502275 -3 -1 5
185 0 1 0 13.784355587949126 0.4876485897703692 1.2993111648396816 0 0 8
58 0 1 0 15.736728303345702 2.337256838698831 1.2401908238010342 10 2 2
183 0 1 0 14.848684523319285 4.143958510947532 2.6764630456469907 -7 8 -1
161 0 1 0 13.941159828385718 3.2322123707998593 4.638137365223075 -8 -6 3
202 0 1 0 13.574055091994364 0.9066636312462288 4.846066211399494 2 -1 2
98 0 1 0 15.419806346594191 0.42985961314759197 3.4316667610397418 -6 6 4
123 0 1 0 2.4684569125766136 7.4132398284682335 1.177989034923431 -3 -4 0
127 0 1 0 0.2978232786213837 6.579477928155037 1.1046052293470743 5 2 -4
17 0 1 0 0.22953733419334685 6.167167299422802 3.469623692091735 -6 6 -3
192 0 1 0 2.480991845631706 5.255916477063143 3.3861978472118257 16 -3 -8
180 0 1 0 1.3290733197951414 8.076237892951152 4.594732429927413 4 -2 6
94 0 1 0 6.294982862140179 7.833823634376093 0.957987379000068 3 -5 -6
25 0 1 0 4.175282968896234 5.965060453593302 1.5080408542193633 6 -6 5
68 0 1 0 5.213296412712352 6.132048781471286 4.419998045125326 8 4 0
124 0 1 0 3.551908843893938 8.028313681614305 3.9152032482485866 0 -5 -1
2 0 1 0 7.861416066024919 4.657401282545903 2.3661731771262664 -3 -2 5
209 0 1 0 7.61011741174316 6.954406853133818 2.875580758108085 -1 8 0
20 0 1 0 9.919104462267843 6.885508915626081 1.47774875941434 5 1 9
125 0 1 0 10.83387746890391 7.424844744630897 5.027294447958832 3 3 2
155 0 1 0 11.789432492640099 6.323178937093286 3.012765442186291 7 7 -2
129 0 1 0 13.579253358169392 5.501620330263981 1.2287748865986052 0 1 9
163 0 1 0 14.025427377668176 7.054413764516541 4.245576391074831 5 -3 8
160 0 1 0 1.8996235614712973 1.8041859300572698 9.330712845215505 6 8 -1
30 0 1 0 1.449775460471743 2.624009988977235 6.047525351889535 6 -1 9
139 0 1 0 1.550883855344141 0.3394037455436069 7.12116542735848 -2 0 -4
114 0 1 0 2.9573819828250487 3.9599512835243145 10.581775221531142 -4 -4 6
60 0 1 0 4.97570581114154 1.1422169783032516 9.22226651871079 -9 -5 1
34 0 1 0 3.7741032961010132 2.447467923372339 7.197882220384897 4 -1 -4
141 0 1 0 5.670234516871857 4.015539911988494 8.70721274342046 -3 8 3
211 0 1 0 8.490083659679925 1.2605624640278812 6.447535924326373 4 -4 1
164 0 1 0 8.291515738277852 0.64313285081708 10.086699791876798 3 3 0
169 0 1 0 9.425004174736737 3.7014381980755275 9.610217928529984 -5 2 -3
61 0 1 0 7.2597228489134515 3.0070428798898634 10.436063621782235 -6 7 -8
176 0 1 0 7.551863900266174 3.791730748073015 6.474317071696394 4 -7 6
146 0 1 0 12.662901065186425 2.49957742378266 7.709150901261016 -5 1 -8
51 0 1 0 10.263776753141128 2.4471072048872857 7.934728554091796 2 4 2
48 0 1 0 10.48879976450701 0.2702237362686662 9.29863099139359 -5 -2 2
36 0 1 0 12.213566146141792 1.1919153473336397 10.506228488502368 -1 0 9
112 0 1 0 15.389503464381994 3.7759424795275027 7.055678032794194 -2 7 -2
99 0 1 0 15.89664678641533 3.3868576812273092 9.527348141365641 8 2 -3
212 0 1 0 13.417774091616756 3.475836846037192 10.215042529990678 -5 -11 2
162 0 1 0 0.7086177023580215 5.488539968333893 5.85907975447186 0 2 -9
117 0 1 0 3.123043560084438 6.995233493264269 7.534353263906774 -6 -5 -7
67 0 1 0 3.187520873988841 5.117098392719864 5.898273598993842 5 -5 2
22 0 1 0 1.0406947548295558 5.805966477136493 9.47088847904617 1 0 -1
43 0 1 0 6.368076405365117 8.072638410652658 5.494156038036585 -6 6 -4
84 0 1 0 4.000685707303216 5.628486572870828 9.34208157500791 3 2 11
207 0 1 0 6.4269642157622995 6.911799097315809 9.715626744577394 8 -1 -1
83 0 1 0 8.433573910266727 5.40305237487622 8.307099898179352 16 7 -3
136 0 1 0 9.642699237053382 7.218167817839681 10.15714499564434 -1 0 0
42 0 1 0 7.56361006046601 8.055649890392914 7.836616908102678 -1 7 1
172 0 1 0 8.59368927110774 6.493970978534265 5.634936515879522 0 5 -7
77 0 1 0 11.078035341442412 7.049994759896155 7.780595156549142 -6 -3 1
46 0 1 0 12.860871486745857 4.568484542902237 6.291226568701139 4 0 -2
137 0 1 0 10.443262206466256 4.811613626496584 6.7128549080937585 -10 -6 -4
191 0 1 0 12.422511472049656 5.237127885464097 9.22324581289163 0 4 3
44 0 1 0 15.766984042570568 6.749584666489174 7.65584894476288 0 1 -2
179 0 1 0 13.472891210405468 7.028234247975011 10.147612953079886 0 3 2
18 0 1 0 13.378305179350686 6.997754390059994 6.75760439855524 1 -4 4
64 0 1 0 0.19904395585578163 1.575108078806744 14.632955003183406 -4 -2 -6
87 0 1 0 3.0774305778382387 1.5972209810063838 13.817725769877173 -4 1 -4
199 0 1 0 0.38395052545366887 3.344455219775464 12.131344065543125 2 2 5
33 0 1 0 2.1892487269237324 3.246888615666427 15.603827232350781 5 -12 -1
45 0 1 0 0.49729600862873685 0.29681216569391344 12.35341734964169 -5 1 3
55 0 1 0 2.7021829210721933 0.19075601646488624 11.082228231033932 9 5 -5
167 0 1 0 5.236300878836481 1.781204815609929 14.619413470450848 -9 3 -4
196 0 1 0 6.239439260557808 3.847331300670601 12.516043267345774 4 -8 -2
188 0 1 0 6.310020602936376 3.8726071839988325 15.601506735871409 -2 -2 -6
166 0 1 0 4.3319184029216755 2.177972049590713 11.837822803815781 3 7 8
85 0 1 0 8.542004892904853 3.183791428329531 13.901974901066419 -1 -4 1
173 0 1 0 7.109452693387392 1.1246907682408265 13.02343771833984 -2 8 -3
8 0 1 0 11.60256396972317 2.8133881441839486 13.229765600170659 -4 -6 -9
182 0 1 0 12.142632618200931 1.319330025104551 15.071617965270738 5 -3 -6
187 0 1 0 9.854187280463819 2.0480136777536058 11.760721646869552 0 2 2
210 0 1 0 13.701782527528414 3.9541820836630914 12.587902784317556 -2 3 7
107 0 1 0 14.372968066094437 3.469202628485331 14.82499796134403 -7 -1 -2
41 0 1 0 14.14746204810935 0.2100211864283629 11.045769849641406 -5 -16 -5
157 0 1 0 1.6845896001165168 5.364211140659802 12.780051644425567 -7 -4 4
63 0 1 0 3.2159884631723292 7.345969916849466 11.460003922951515 9 8 2
28 0 1 0 0.480543156773926 4.880746768821715 15.064985709943485 -5 10 0
206 0 1 0 1.8210460318444581 7.92106212047191 13.423312231831163 1 -9 2
184 0 1 0 3.9684595829198464 5.144050378697161 15.057067777898807 -1 3 -5
101 0 1 0 5.911218159465437 8.092284968071493 13.498422117106928 6 12 -4
24 0 1 0 4.3172894735240614 5.087179125452455 12.576115684616445 2 4 9
53 0 1 0 3.727095344826335 8.009888821020946 14.96301809763386 -4 1 -4
150 0 1 0 8.941518529638056 7.722502733679203 15.225132307610144 -4 -1 -3
145 0 1 0 7.601378287746871 7.256736402799924 11.624337028400628 -3 -7 -2
88 0 1 0 8.589790084942077 5.5587118630421335 13.239449415208034 -3 -1 3
194 0 1 0 6.818649926651273 6.436935396231629 15.00661524582796 -1 -1 -3
75 0 1 0 11.107259800035806 5.213926830869216 13.316249788082628 0 0 3
76 0 1 0 12.275306237011213 7.3933997316285724 15.543851706771914 2 4 -2
62 0 1 0 10.573568074078395 5.345374435173215 10.901142311674908 6 -2 4
159 0 1 0 10.499399558002343 5.275402390632599 15.921785590836413 3 5 2
23 0 1 0 15.617000754638164 6.0487467669360155 11.330961978400218 -1 -2 -3
73 0 1 0 15.497009189993454 7.283313707201588 14.315263731961853 -3 -4 3
149 0 1 0 13.371329358329332 6.535051579543796 13.21804695381339 0 0 5
198 0 1 0 1.949888652757774 9.694822934104687 1.4597444555647021 2 -6 2
54 0 1 0 0.5322061803405816 10.181327966636884 3.4344457924958167 -7 -12 -5
12 0 1 0 2.8310069597827203 11.799322393184399 0.20787936494076759 -9 -1 -6
106 0 1 0 4.041582556453984 10.519704766562892 3.2115357120875907 -1 1 -6
92 0 1 0 6.060637656565981 10.163714984067775 1.3585728673645874 -2 1 -1
49 0 1 0 6.804505901415384 10.078309143836217 4.131186841922366 1 1 -3
171 0 1 0 8.980189783637565 8.993668748939307 3.6113411529320447 -4 2 -1
111 0 1 0 12.004905758496825 9.227959953697306 1.1539156220891698 4 9 -1
168 0 1 0 10.565786840442222 11.871924324270932 4.825944062677371 1 10 -6
15 0 1 0 9.892952664035032 10.172238898272603 1.802742984151599 -4 -4 -2
72 0 1 0 12.56874202389593 10.461268894094633 3.38695273745984 2 0 10
216 0 1 0 14.451967654464571 8.969892561529617 3.3099420477394634 2 -3 8
153 0 1 0 15.849817291999896 10.611723081200118 0.4913702519545707 7 1 1
6 0 1 0 14.590289476891993 8.320705588939251 0.7493153436451311 2 -1 2
80 0 1 0 14.281146333620521 12.045810261919282 2.0436929473120933 -5 -7 0
175 0 1 0 2.05802132853099 14.440975039142346 5.069908753642143 -9 1 -8
122 0 1 0 1.9825105680120325 15.681491954015652 0.5751703589553038 5 -1 7
126 0 1 0 2.0601796633418 12.514473176110043 2.9963663253575405 -3 3 3
178 0 1 0 4.882519419309935 13.32549399636256 2.986224848131111 4 6 -4
97 0 1 0 4.796972051922106 13.183978044342087 0.6967947299573356 -2 11 7
93 0 1 0 3.3937035818044543 15.447638990922213 2.746244327592065 -1 0 4
113 0 1 0 7.194995527312912 12.355442009818777 0.1894175835447268 -5 2 2
142 0 1 0 6.95294090903178 14.662419835340057 3.655919561385118 -7 -7 -4
95 0 1 0 8.674678589876155 13.628199855514493 1.7410806045824492 -3 -3 6
32 0 1 0 8.922005507079183 15.645945673438142 0.3612907598512458 -3 -9 1
69 0 1 0 9.11269439928021 15.618305615870156 4.278123578871931 8 -4 4
154 0 1 0 11.582857122256257 15.867418597058558 3.5631399796877776 10 2 -3
128 0 1 0 12.63642393959682 13.734489432356314 4.841407499580778 -3 -2 3
14 0 1 0 12.198161233081496 12.417303455054446 0.9887991708250271 2 1 3
120 0 1 0 12.507881357928532 14.580566625090027 1.8617047667648252 -5 -8 5
102 0 1 0 10.16423973396925 12.284608765673436 2.425235103654142 -2 4 -1
65 0 1 0 14.587234050792953 12.401187880886331 4.54317757751125 -5 1 -1
148 0 1 0 15.995155700279026 14.162097520457078 2.316991242607861 -2 -1 1
170 0 1 0 0.4370623031600666 10.768700699237575 8.565206158271383 -4 9 1
203 0 1 0 1.417813739064271 9.03896941815466 6.852818709710692 9 -4 1
59 0 1 0 3.3108601808093314 10.120641376482963 9.004379273977635 7 -4 -6
144 0 1 0 1.911554557782927 8.369801001378855 9.633876890342641 5 -7 1
4 0 1 0 1.7884463868304412 11.276329271127581 5.528405756690931 2 -3 -5
213 0 1 0 4.2769623194719495 8.899699821210188 6.436740488983604 -3 10 2
57 0 1 0 5.908063434591323 9.796149587412238 8.944261824995513 -10 5 -5
38 0 1 0 4.248725130150441 11.414297598170391 5.510024101196757 -1 -8 -2
100 0 1 0 8.702370086935684 9.953221819186494 7.357613666368302 1 2 -4
91 0 1 0 7.2467049412655395 11.615023858479493 6.030643588034673 -3 -2 -1
138 0 1 0 9.503452373635255 11.347694511062251 9.057026123280938 -6 -2 -7
19 0 1 0 7.4808813675052575 10.83663940507559 10.402515282101591 9 -1 -8
205 0 1 0 10.66897702382001 9.731628841831556 5.965439563540852 4 1 0
3 0 1 0 10.88406417733025 9.252161953582698 9.756719886389543 -3 7 -4
66 0 1 0 12.217007602819669 9.985768429386919 7.796509556838986 4 9 5
181 0 1 0 14.317577955037162 10.38933165963753 10.795430968116687 5 4 7
90 0 1 0 14.566299396473822 8.856830829762016 8.60535986689457 -7 -7 -8
86 0 1 0 1.7901927264521602 14.522994945820704 9.656471527756231 -4 3 4
103 0 1 0 1.5177442161823647 12.854309294507647 7.67980933526292 -8 -7 -2
151 0 1 0 3.2433009157630335 12.394173374136589 9.908483125694156 -2 8 -2
190 0 1 0 4.021028625676396 13.614581231731613 6.57556869030263 -1 -5 5
27 0 1 0 5.786974122827092 12.185900623076055 8.030005877608756 4 6 2
79 0 1 0 5.720648812429599 13.716137678239026 10.178857350390913 2 4 -6
56 0 1 0 6.00309144285597 14.819138570137255 5.9213267147192585 1 0 9
96 0 1 0 3.8839846567701564 15.050908577960037 8.529858549465693 10 5 -1
105 0 1 0 7.933345236696621 13.810511767929826 8.458282732324728 12 -3 1
121 0 1 0 7.123659657130431 16.10749796670455 7.998157040104316 10 -3 -1
119 0 1 0 8.933084998118753 13.346328246918889 5.831714144888716 -5 -3 3
215 0 1 0 12.845842489463283 12.230225438900568 7.319332145656046 -2 2 -3
214 0 1 0 10.780793331488098 13.218251492675334 7.484051735113129 2 -2 -2
26 0 1 0 11.376541973167768 15.604430087430503 6.801404919569166 2 0 -7
82 0 1 0 12.71428596039692 12.321512341839792 9.89687513507735 2 -2 2
115 0 1 0 10.628692325722325 13.784003190650466 10.029161347902859 -4 -8 -10
143 0 1 0 15.697455316891833 14.61457550695423 5.489901852473552 -8 2 -6
29 0 1 0 14.685463614598094 13.514656245419674 10.304449641448583 -2 3 -5
134 0 1 0 14.960940246586542 13.645198552855474 7.650162209988583 -2 -2 2
118 0 1 0 13.59512832255102 16.057479111023753 7.08220775526067 0 5 -9
35 0 1 0 15.454347087046143 15.789380588774188 9.01909922118813 -5 -2 6
70 0 1 0 0.2741676974856508 8.547577562221537 11.112346302519198 0 -4 -6
74 0 1 0 0.9815358091130899 10.331167282159603 12.68558700618883 -4 -7 2
40 0 1 0 0.6101083564928939 11.855814288371974 10.804941249507237 -2 5 1
131 0 1 0 3.559149729947103 10.517729534341132 13.005482221956775 2 -2 -13
52 0 1 0 5.878725294105264 12.018991940820161 11.881968485425118 5 -7 -7
31 0 1 0 5.039856326542074 9.05193413234905 11.292161722353939 6 3 9
81 0 1 0 4.479072123322 10.156845639163588 15.558757480444207 -4 0 3
189 0 1 0 6.455594496103976 10.274394173394061 13.963400799059741 -11 4 5
108 0 1 0 8.35130764019485 9.787242331070436 12.28288441238385 8 -6 -3
78 0 1 0 8.788697053333069 10.32521987033288 15.497730254430916 5 -2 0
197 0 1 0 9.77220937017155 11.92313600182434 13.29313977862661 -4 9 4
9 0 1 0 11.063672897875191 11.281800842728876 11.364122864176704 -5 5 2
195 0 1 0 12.29301630697175 8.20202609541293 11.936237154702201 -10 8 3
89 0 1 0 11.219321100414968 9.8106544255859 14.620416138293212 -6 0 3
37 0 1 0 10.054605982831786 8.246000646883038 13.136984974857093 10 -1 0
158 0 1 0 14.986076732695716 9.77783197107085 14.323452328943004 0 -2 7
130 0 1 0 13.113849616613937 10.626243569868 12.850805166155112 4 -2 0
110 0 1 0 2.510355284719414 14.458172017145936 14.793882045294593 2 12 0
156 0 1 0 0.6214904580235651 13.93233224550747 12.476153665424825 3 -6 4
7 0 1 0 1.0793959545515703 12.253843205377054 14.365036842253245 1 -1 6
47 0 1 0 4.222769501940286 15.032996145152147 12.904129060564285 4 -1 7
147 0 1 0 3.51478883542645 12.63033335330236 12.101749675617372 -4 9 3
204 0 1 0 5.054255028738773 15.345512228189719 15.445801488727106 4 0 -4
193 0 1 0 6.011997918689774 16.072436200916965 11.204768369478213 2 -6 1
13 0 1 0 7.299160824649566 15.221206518022843 14.60435003493908 1 -1 -6
174 0 1 0 8.567914243243937 14.450780898724098 11.73146114831158 -3 -7 0
10 0 1 0 7.443973207559897 13.042959125262655 13.609900198299721 1 -2 -5
16 0 1 0 10.983089762203866 15.245352650975079 15.635134338737299 4 -4 1
152 0 1 0 9.97623266654646 15.961257854004861 13.158772237084891 -4 -3 4
133 0 1 0 11.819527193135514 14.778229452744988 12.095229521364548 -7 -5 5
135 0 1 0 11.690373371917032 12.8882543759711 14.735071349534655 7 6 -2
140 0 1 0 15.289878567108758 15.158042412454964 15.960801585612623 2 -9 -6
21 0 1 0 13.69375969658263 13.031967772100073 13.122025153596242 2 2 2
1 0 1 0 14.692283891365726 12.820064249875347 15.421389977776869 -1 -2 -5
71 0 1 0 14.03453312769429 15.440693407055747 13.866078895800865 5 -4 -5

Velocities

177 2.3169259197528658 5.4344268945201755 9.615854260173675
200 -5.8258341072752895 -6.251980815032541 0.9518000849101284
116 8.558963757746673 -0.9639122333158309 -6.735979966786403
5 6.49637136980575 -7.954876341436988 1.731140109995692
165 -0.07223187880827128 -6.769924197859848 3.3961836583566862
39 0.8236004731788347 0.28934604308241213 -3.036958122466838
104 9.727577584098272 -2.8228406856625097 -12.021360667595593
11 4.642854727205699 2.087106800923219 -14.881159348306015
186 -12.938422621996994 17.24085796062408 13.058504672691022
201 -8.882590073264234 16.42589816633483 -2.6660861405765446
50 6.41056896265822 -1.6118042789164257 -3.025717180094189
208 -9.023684370602911 -13.188843840348673 -8.55146982738332
132 -5.728415519325996 -0.26801151566433445 7.024204828788003
109 8.087679411030143 10.185822420133208 2.206353429918301
185 4.827000537567564 -4.720384017094177 -2.0271562067159588
58 3.1165356339360946 -1.860910858221601 7.086129730170019
183 2.486831979817582 -9.517007930073433 -2.872618167468443
161 -3.327437208465161 -14.713103923763441 10.27890729123879
202 -7.536601481372349 2.657130065259417 3.6623557879386937
98 -0.12553503435237864 9.671981552747237 10.78138442930447
123 4.547930697631735 1.376704343184337 -6.469908758943567
127 -4.687923804680272 -12.723662952361888 7.054688139721544
17 -3.158762534638822 8.219435879598654 -19.5262490002029
192 3.2246207037241277 9.569842011865951 -3.8501259851309184
180 -8.657376222086208 2.8683851827136055 -3.7344333442576487
94 1.9463991009694235 -3.1324504303289484 6.89750923344146
25 -17.99759094665337 -9.670107227316652 -10.29355832515912
68 -7.727362793423592 4.901213085362886 6.726597187957453
124 -3.201411445568511 -12.621685560878793 -4.42134660847369
2 8.88848988916027 -0.5846691794025827 0.6462102354744439
209 10.039495955276124 -0.20340114045228125 -4.155685341327352
20 -6.576897234043337 13.501822515667511 3.7673305954401743
125 -5.599293272947394 -9.427432880648624 1.2856519269852424
155 3.6067595811640434 4.226108680915774 -2.781180709333893
129 3.182375106211853 7.998187743155912 1.8299002706612078
163 -5.549346643574446 -14.932908482684443 -15.077673392318212
160 1.8361203004912836 -4.228409356578003 -8.45698854643035
30 12.510197182758116 -17.378520562493172 -10.205070598801644
139 3.424204827245161 5.540386551638854 -5.010170415482583
114 8.868808957208456 -3.3650262270129065 -2.4988788988647794
60 -4.945156420126186 3.291273174951044 8.045994694957482
34 -3.46108098591214 0.7897511277381094 0.5440924447760134
141 -6.245616609155227 -0.9299473282445174 10.779722380432736
211 -7.6195023090427165 -0.0439375158472827 15.101487935687947
164 -1.1277416966360532 7.462237847970398 -11.640184531033785
169 -3.532065117458769 0.43907995883253276 -6.535548455423835
61 -4.580379703731373 -4.582489072859948 -3.1507274818587945
176 1.839131972702754 -2.636500918591001 -3.5305870673861413
146 6.0417097842877725 3.0845856556393887 -1.8583532337964856
51 5.9070244240146 8.739067463002563 2.7424963167294476
48 3.2728992223079243 2.61156770255264 -13.323591568240653
36 -10.729109831470721 -0.6649334966333504 3.2175016097518676
112 2.462556394129476 -0.024967781859351598 -0.8751943858130249
99 -0.23614781449141253 -13.152347519254048 1.601061053114949
212 15.730733734094384 -3.7467170033425163 1.5798990979368588
162 6.094214809490053 2.789150870176055 -1.385642362781232
117 -9.28577237133594 9.285093137587392 3.1529653715633628
67 7.398589142602634 6.078594447647794 -1.3453219431296288
22 5.8990374876028735 9.525257923234145 8.515304441597934
43 5.128466564908725 4.054999979751996 -8.951742694788924
84 -3.165045821721174 5.086070504031424 -6.889618487381514
207 0.46866285033589605 3.55079199938816 -4.56786843449905
83 6.697498962609633 -3.079403998970932 -10.067030015699956
136 -0.15322454460628718 -2.3339004101824905 7.819118493729392
42 1.404346948426231 -0.3136067682354626 -8.763734827479276
172 4.403475399334493 -8.253919807266696 10.122379826291349
77 6.381220547647303 -4.787203733099714 -0.4831407034223715
46 18.37162229480539 10.423278819536765 14.086265868767857
137 5.290026012777716 1.1592221864064831 -3.9251920610249424
191 3.121504033300207 0.18003567099113427 -2.4174662905662325
44 4.287940717802642 -1.99435108235193 -15.935557044178216
179 3.4914414459051755 -3.8611366084747263 -10.986536711604478
18 1.1447667664452634 0.9643229772127878 13.1999460883512
64 -8.77426689628506 1.7988330441874594 0.2973879031290489
87 -0.3136955046873101 -9.630889627323707 14.683456100727996
199 -13.621984811586815 4.601574894815287 6.979902605211692
33 -5.512493689654881 9.299514464532137 1.8617593831296975
45 -7.0251733357044 13.413959233664412 -0.7743043671450607
55 -10.084553883395865 -5.146540678792682 0.8436596184255495
167 -9.8978413588455 -13.297828841415766 -1.1074058154540976
196 3.072652576355844 2.925061917472393 -3.143022619899924
188 1.6352377589408353 5.404432105530988 3.101490061950833
166 2.5893058331821885 11.695516288250126 4.002249003482753
85 16.43197383178493 13.578585552131269 -4.215470726554015
173 -21.447284266214222 2.6892624776263747 -6.8820756535335725
8 -9.089568661217893 1.8611324888257992 7.703591554891836
182 4.984731551605226 -9.907044211228103 -6.479438332136239
187 9.911204514864147 -12.101776339662612 0.7761160286009352
210 -14.757544354517162 -2.9010227654887943 0.8256470637504126
107 2.191768241841437 -12.33096688211925 3.6131141548521475
41 0.21835618797572615 -3.4042501103531686 -2.6254055891500654
157 3.0988733183778194 0.41972650446647686 -0.29390599850791266
63 17.624784915939653 0.10806217532538831 -5.03715289773925
28 -4.576982502840641 -4.427565404640155 11.584593522240906
206 5.6214909845909 -13.010128249858008 -13.040755918638853
184 -0.01826035331978886 -0.4602956046586208 6.402728103849846
101 -2.910868743071453 -5.553523223979178 -9.24583318141721
24 -1.021965801937395 -6.8951210690851745 -0.36847026848524195
53 0.06841521890040861 -12.421119309708837 3.961122361188145
150 -10.336287418335761 -8.556264531416717 -8.882889550465624
145 2.3069704472040473 17.27708815694701 1.4305011209354586
88 1.0681290666491594 1.2216076126308362 -1.9539202704297725
194 2.620408876541428 5.579137388059726 0.9211020558596874
75 -4.884988817677928 8.345348174281234 6.123782421676207
76 5.830508033658166 8.074391594288324 -3.4384288029810097
62 4.92802017675666 -8.7255237376867 -12.423420839413948
159 1.6897450122830406 -6.817722496494207 0.1624896400768237
23 -6.233441683478523 1.708197701373592 14.30328593269086
73 1.4393421575758405 7.017366733209869 2.1430206043478544
149 -3.4328378953526983 7.067632970348707 -0.5269521697565924
198 -11.550786793322954 -5.085210574388812 -2.746510266612567
54 -1.6193910042246777 -1.1912260722728307 -5.076328455925106
12 13.803867667321017 -7.133070248045445 11.281049710161408
106 4.920088599336572 5.2002998249915455 9.022599295683536
92 -6.4086785408114455 4.462569796768844 3.9348040306940426
49 3.0937710051827 8.609447745330224 -0.757809966613373
171 3.171466190184665 -6.854805667552655 -10.137623568327202
111 5.543838571513848 1.7973150506225664 -5.364272388153115
168 -5.106677007384816 -0.1158774618035911 -1.573872315125214
15 -8.01710624320041 -5.001530597104007 2.729000058618809
72 2.776820856304118 2.3022487030136554 -4.3924238817742065
216 13.873931240238822 8.269129922409101 -0.9791343920623046
153 0.6246051965505426 -8.731761827557769 -3.4642570591529305
6 -4.87560283453031 3.8590638168778995 7.346892433228826
80 2.9780265456117134 -4.482468338038747 4.576983643708271
175 9.10576708444627 11.429730967114866 -2.4519267935241524
122 -12.35802973034199 10.832474209153238 2.3240176105358135
126 10.089375106473783 -9.455609243086442 1.7253498920896695
178 4.246375098471114 5.376993140858344 4.399892411653118
97 -12.90598670094307 -11.617970704714036 -6.24740403666222
93 -20.172501159892132 2.988115509475199 10.366145760874172
113 7.029703842450065 5.005178575157386 0.08478890009235954
142 2.753741180074022 -3.820692433063574 -4.674353686620418
95 12.94579810341717 5.63119094627794 9.702323577450109
32 3.316611507789363 -0.47168681853813116 -27.153072350295684
69 -3.021198926134194 0.3643216848462161 9.14195534905432
154 -6.216166934276495 -2.507916342740633 -6.175216683522464
128 -7.563804391645546 -8.263357901392666 3.2187120342810287
14 -0.2659546980609203 0.8255471824185082 -2.0653545186978937
120 -4.354338286713905 -4.533632692771226 5.715496613270474
102 -1.5664612610899291 3.9877958421526953 1.5112470212362343
65 2.5981205220541415 2.7603811774777505 -1.8963790571663102
148 -5.344337366168057 6.742953379861339 1.0932463687791578
170 1.3847934373764108 0.7631225739671612 6.242453961575692
203 6.907133914734342 8.281937650901599 -10.394793931963973
59 6.132532883077595 11.673930141285737 -5.63680546341312
144 11.989954833618368 -2.9553844081598104 8.0697186278243
4 -6.430055632228921 -3.2238186408136547 0.49305893448857685
213 8.515770605814415 3.0909363590511267 -1.3884217031151533
57 -4.641286120115942 -0.23333375228062406 1.6747484618587827
38 -13.93282004836521 -2.011235825957863 -1.4071136789541643
100 -0.47709162216259937 4.625271736713943 1.756829989732522
91 4.826924830194688 2.9217663887003824 -3.010075562067205
138 6.994397206349244 1.1991965574296433 4.917726720215883
19 14.168926653518579 14.348719641931522 -4.855682055391488
205 0.19165238982734037 -13.53787962900246 17.50977295574718
3 -1.8319459865481476 -2.732041197337019 -12.296799711000926
66 1.4490258456567353 -3.0530784472139763 3.175817912215816
181 -4.192379944690964 3.3652488868557655 -1.6939531031624293
90 -3.4915599257871217 3.123127280631876 0.8123163933704867
86 8.141050111399819 3.731780195838018 12.622134615908644
103 -8.126754068685766 -12.13415258301662 11.66174887231795
151 21.742093645485657 4.447075548818372 2.0692988629262095
190 -0.9359626963243579 -5.698323988954341 -20.26165328118339
27 -3.759915119743671 -10.148275901277582 14.061146220645732
79 -2.979225958782057 3.473582236319821 -0.03617180112531901
56 -4.350133630079346 -2.5483957618443065 6.472048344657308
96 9.874041008230602 -9.351302435913963 1.5145483437098028
105 -14.507629721683985 -5.544437767690439 -0.35602979080230157
121 9.161336730161295 7.195223755790938 -3.1956238693922656
119 -0.8319021792235343 7.628316568428376 2.687229477227826
215 2.578454009846488 -7.098842292921163 -12.4773477001152
214 1.6749900028948128 3.7616591219416637 -5.3322158862249935
26 -15.607600355946627 13.02251642189996 -8.625004599593533
82 -10.382125519086578 -4.4210754595907815 -0.1189917458592906
115 6.253427385614898 3.229999347467533 -7.893702533583944
143 1.4965239241183392 12.83656665300297 -7.24346874043181
29 1.0383100036019726 -2.904155131160167 9.027061083892972
134 -10.747089316138668 -0.791544761504709 4.637148668445608
118 8.079892182323006 -0.9441292245421471 4.878140731598932
35 -4.104004735482541 0.5851438740458502 3.956069492673521
70 9.846028552567267 1.257279947252785 1.3647128924800018
74 1.9443095016098082 -9.43094177680902 0.2592415322224411
40 -3.015064815161523 17.17430010094951 19.035708330316186
131 -0.6062063847213334 -2.07409837379359 0.4931780446392067
52 -10.13308598414214 1.203370728857707 -6.279785242890419
31 16.458104883807525 -0.9462894353513639 -5.270056862637304
81 0.6045816922291947 -8.04081960394654 0.03741190447981654
189 -4.675051365927781 -1.8908984255548804 -1.1597837946744012
108 -0.05623737853898287 6.279106958774226 3.570069727598365
78 3.929090883456364 -3.5476737765438404 6.424440925403376
197 1.4683433486335062 -1.7220401274587718 4.613081328790701
9 -17.52878371054628 -6.311812621520901 3.664051070326996
195 -1.0607944952080974 -4.743489058244813 -0.0892245494263671
89 6.772899383638609 -6.7559027336166615 7.639091715556238
37 7.59690217704956 8.995607656227442 -1.4567304000918835
158 -6.069035685736967 4.026755365802005 -0.18181338050227333
130 -1.397625375755901 0.2228070555462312 -0.7044840207869598
110 9.218791801099783 -5.840252208406574 2.396253427841044
156 1.025854716626331 11.592458376309303 -2.5083748593646034
7 3.24883219280288 -1.6447675610238128 0.07920592654409885
47 -21.46095551288484 1.3132150168273462 1.7444195454052194
147 -4.278598798043388 0.4292419683826745 -7.5780445635012255
204 1.3065063480963661 -3.196050778626505 11.861109643799352
193 -4.1773864469748085 -3.458344573763837 -14.20300000410657
13 -5.554722867323367 -1.7405684172001838 2.801557520420763
174 4.544916660492818 -13.067873926829321 12.861868716727217
10 6.946195903576586 3.5000270841602505 2.8494621357158394
16 -1.973218145069986 1.2097595072007041 4.801293809718687
152 5.6117254904874265 9.11233551989201 -9.110111017799243
133 -5.502449412641674 8.715269304496244 -4.490482980943323
135 -7.822965433045465 -1.3838493993034715 4.595660793036686
140 -5.700154694113711 -5.941990078247232 2.0479152161764467
21 -8.173210073728486 -2.9142511083478686 -0.5204334682170784
1 -1.386684359010549 -1.333583160767445 5.021255308912239
71 1.1510114586475442 -5.088339784571706 -0.5006670599358607
