LAMMPS data file via write_data, version 23 Jun 2022, timestep = 1000000

216 atoms
1 atom types

0.18760046584479784 16.10449953415824 xlo xhi
0.18760046584479784 16.10449953415824 ylo yhi
0.18760046584479784 16.10449953415824 zlo zhi

Masses

1 28.0855

Atoms # full

114 0 1 0 1.0067335469804757 4.077100922670302 3.1400093288275492 2 -3 6
65 0 1 0 3.115330360883729 1.8935200411238087 3.844078323018604 -1 -4 0
194 0 1 0 0.3193199060960075 1.4244757308378657 4.065722185538328 -3 -4 -7
79 0 1 0 2.2864256138974395 1.7788511604032642 1.5313087693528085 3 -2 4
103 0 1 0 6.69939291242119 0.6294272832035637 2.1580886805992976 0 -3 -1
146 0 1 0 6.659402159050563 4.000020813368784 1.9753504552719228 -1 0 5
199 0 1 0 5.137501168157599 0.9276134819245165 4.227957329873921 11 5 10
66 0 1 0 5.521728271554529 3.972396951570932 4.781644661918218 -9 3 0
92 0 1 0 5.247118242713014 1.7922863244356384 0.49098777035130453 0 0 0
123 0 1 0 3.5377554279384484 4.449750147832769 3.201006730703745 -2 12 8
136 0 1 0 1.6717209825125974 7.048323774145448 3.534726631339966 -1 -10 -7
44 0 1 0 2.5583887487367876 5.594837956806731 5.442842239790901 6 -3 8
60 0 1 0 4.138012211450824 6.896265426187371 3.2211150051280355 -3 4 -2
141 0 1 0 0.8481534070191158 5.945498628758783 1.1794729248876297 -9 6 0
165 0 1 0 4.632513351692658 5.01230912449115 0.9336879838354262 -4 7 10
142 0 1 0 6.257756694815072 6.240942292407824 4.2375410504003375 0 -1 0
143 0 1 0 4.470411930340131 7.588277987230752 0.838607451458056 -5 0 -1
48 0 1 0 7.9878151293119695 5.718999960454889 2.895462100215754 6 2 1
126 0 1 0 2.2541393188076406 2.6229991972890687 5.810864532052615 7 2 -6
20 0 1 0 3.305548903505175 3.133885108127379 8.660135580767205 -5 2 -5
154 0 1 0 1.6765553180698876 1.2522857625705475 9.437841343703822 4 7 -1
89 0 1 0 0.42243316727064517 3.5293195300691584 7.391038580127762 -5 6 -1
80 0 1 0 4.789584597110654 1.722407688299668 9.879047407136062 -1 -7 -2
58 0 1 0 6.930059210361889 1.9786590449259063 8.47537016638591 -5 6 -6
128 0 1 0 7.035568823146033 2.071035910478919 5.6559027588464605 9 -6 2
116 0 1 0 1.423256241969893 4.460549092778657 9.730295685741401 -7 -2 1
112 0 1 0 1.8890022294140731 7.072010001425211 9.875250629375545 3 -4 -2
183 0 1 0 0.6574180487044994 6.232539198317695 6.576540808423953 -1 2 1
139 0 1 0 4.469890779848082 4.41265398810334 6.748919418425219 7 12 -5
67 0 1 0 7.186999607771151 7.580589547883483 5.94660456155033 2 2 -4
50 0 1 0 6.095679895570309 4.221871883881946 9.995955155260924 9 3 -9
211 0 1 0 4.262970918215311 6.0100720689878235 9.308168987859165 -2 -5 3
19 0 1 0 5.076389795591642 7.042928208726566 7.034274593310243 3 -8 -4
102 0 1 0 7.398899028315803 5.721752399224164 8.2755798296296 1 7 2
51 0 1 0 1.883661941800956 0.6715192238822458 12.046251733406027 2 3 -8
168 0 1 0 3.468824961950479 3.5482910994752244 15.406873751875514 3 0 -4
55 0 1 0 3.359420938728218 3.197168660079894 11.85875689469864 -2 -2 -7
155 0 1 0 1.3935733095727025 3.860893148390909 15.892426614540142 -8 -2 -7
43 0 1 0 0.31461421741616213 1.363033564597603 15.358714717849258 2 5 2
144 0 1 0 0.9945101330725785 3.3732230473117357 11.878918189552053 1 5 -3
133 0 1 0 4.596408122599302 1.8310688354190752 13.584066104534417 -4 6 7
193 0 1 0 7.222061415152726 1.4881965611652774 14.596527298854593 4 -1 8
111 0 1 0 6.192284608149774 3.5137364207784247 12.460632666551634 -1 -4 3
91 0 1 0 1.5654762753863993 6.549432061324958 12.143409512828551 -1 0 0
184 0 1 0 0.8656571216842562 7.6555022607774985 15.212342716746958 -2 9 -2
5 0 1 0 0.4259081949625365 4.832488703287728 13.847543385480368 -4 -3 -5
148 0 1 0 3.765477602871369 5.420029256224602 12.520006428949682 11 -1 -7
17 0 1 0 3.577173669456865 7.519825528994362 14.421749421134718 5 1 9
7 0 1 0 4.909582917458081 7.514686508535551 11.049192691248862 9 -1 0
201 0 1 0 5.64610138406058 5.307721827072194 14.440807779018979 -2 -7 -2
71 0 1 0 6.223413830160208 7.541370089242669 13.259807571729494 4 -1 4
64 0 1 0 1.8621357093947772 12.059010618832954 4.895947647624273 3 0 1
129 0 1 0 1.6536063673194359 9.580882432652007 3.69059373453772 4 2 -2
203 0 1 0 2.42195321647681 8.742540931427298 0.995469275750549 0 -11 -7
172 0 1 0 2.0327923275107294 11.728255746400684 2.0324695117355414 0 3 -3
164 0 1 0 4.883483979605354 11.59056228696332 4.6776301622260315 2 1 2
21 0 1 0 6.492081847347818 9.035671827772244 3.6690788887959904 -3 3 7
84 0 1 0 6.161357506060053 8.798842970895054 1.374599007420816 -2 1 9
52 0 1 0 4.178277277995545 9.420985682549105 4.711406560568107 3 3 0
117 0 1 0 2.315111070174614 15.096409449002332 4.447828486531425 -3 8 -6
49 0 1 0 4.090782172187846 14.652921056889816 2.984207186865844 0 -6 0
140 0 1 0 0.7602995324197713 13.238132454684356 0.7390753435877779 -8 0 -1
6 0 1 0 4.006928760203417 15.540912472586294 0.5457333060370958 -7 0 -2
182 0 1 0 1.1614727372500682 15.560340700520378 1.7666731590655453 3 -10 6
162 0 1 0 7.951401558284309 14.451624148481857 1.8473220778573216 4 -7 -2
205 0 1 0 5.562476609152556 12.73912052886525 0.30970329238004457 6 -1 -8
96 0 1 0 4.238167921879554 12.387384951437895 2.4371747934330985 4 4 0
78 0 1 0 7.01328817370014 12.20406748491596 2.4466859122208238 -1 -1 3
124 0 1 0 7.731763943169293 12.182295491042234 4.744541562739948 2 -3 -8
209 0 1 0 1.5658269957005693 11.279116428354065 7.643769352007208 -3 6 4
88 0 1 0 2.4067875898623847 9.41329960323859 9.003311670718048 0 -3 -1
31 0 1 0 3.8749919171806515 9.016724593081435 6.893542847608526 -3 3 3
169 0 1 0 0.4505150720533262 12.01915427390388 9.613958460218768 7 -3 -1
185 0 1 0 0.18959108025015148 8.498044414365564 5.547481400379601 3 1 0
174 0 1 0 6.362746468443854 9.006837779042101 9.863236184760677 5 -5 4
176 0 1 0 5.852747153525365 10.005378392529925 7.722193373964967 -5 -5 2
41 0 1 0 4.177037911952151 12.0716643884807 8.220563425294168 1 -3 -3
212 0 1 0 7.953167281080052 9.88449807200549 6.397790029291566 -1 -5 -4
166 0 1 0 2.7156630222096143 14.586234723054046 8.163620433781023 -5 -9 -2
77 0 1 0 3.5803770363216043 13.39769313934123 6.070239175510795 -4 2 1
85 0 1 0 1.2624541129161706 16.01721472215377 6.679130452876859 -7 -6 0
93 0 1 0 5.522437297873875 14.656593788461846 5.655355143361133 0 -4 8
130 0 1 0 4.732741589677747 15.908391752148631 7.8066337094670715 8 -1 1
35 0 1 0 5.207280772748909 12.688712064607223 10.220569939728378 0 8 1
197 0 1 0 8.068352341031675 13.648577395431692 8.395643945214276 6 6 4
109 0 1 0 6.647442391788754 12.336408507807075 6.7791503508731115 -2 -3 1
122 0 1 0 6.247315807917331 14.854314496345465 9.487650976374423 -4 -1 -3
134 0 1 0 7.685339649198125 15.927962476144625 6.84634282748083 4 5 -1
200 0 1 0 3.4791525018721323 9.486435765300707 11.215396138521989 6 3 -1
30 0 1 0 1.907359469502475 9.103022057381184 12.928570207056552 6 5 -1
179 0 1 0 2.0657019313483835 10.589439819638072 15.441650802317065 0 1 1
195 0 1 0 4.005756843426581 11.738612594153995 14.493386243341163 -2 -4 2
59 0 1 0 1.6398593780642747 11.884554634691376 12.205898643037338 0 6 -6
42 0 1 0 7.490843691990731 10.904941240375512 11.496307590090131 -5 -2 3
72 0 1 0 5.404165439156058 10.6591642652273 12.24655353765884 0 -3 -2
11 0 1 0 7.156453992715843 10.917972263604439 15.611832250596484 3 1 -4
121 0 1 0 5.315609489174688 9.682267848241386 14.536650110303794 4 -8 4
215 0 1 0 8.03810073038927 8.307944579391547 11.918339511815416 -8 -8 2
69 0 1 0 1.8028877605794098 13.638825560987438 14.661312131179507 -6 -2 6
75 0 1 0 3.8470806975856693 13.204093443059392 12.626124591240481 -10 -6 4
214 0 1 0 2.5083170448272423 14.49843666470222 10.842918945686241 4 3 1
36 0 1 0 2.5420002474801016 16.098771782383995 14.479788075473186 -2 1 2
28 0 1 0 6.242559188378888 14.842103840934529 15.170484594089203 0 -6 -2
46 0 1 0 6.098171658453063 14.219126747236643 13.070847951267309 -11 -5 1
175 0 1 0 7.630885703209789 12.400560855059615 13.54719491371641 -3 -5 -1
149 0 1 0 7.731450049868849 15.743874618841298 11.565491540449763 3 1 2
190 0 1 0 4.77005704425848 15.903021652037419 11.708858750187987 -4 -3 -2
56 0 1 0 12.080397745321271 1.6631282413803188 2.8823695904287145 5 -7 -10
98 0 1 0 9.419932432737076 3.8349151723782033 3.622863516616111 -1 7 -7
68 0 1 0 11.668439875930446 2.4081190257544414 5.238985285174526 -2 2 -3
32 0 1 0 10.241836917647761 1.0561454812274575 1.4669048457247345 -2 2 -6
131 0 1 0 8.398247652184356 1.4037946632556284 3.800019581711833 3 -9 1
73 0 1 0 8.220338112553389 2.3813908360645195 0.8863257996099975 3 10 10
2 0 1 0 9.734508040766924 0.33528171444112376 5.4744508152058575 1 7 0
118 0 1 0 14.399222712121949 1.293551896217173 2.5410151768360936 1 0 -2
153 0 1 0 14.91958782902676 3.392271083587963 1.5065703388927234 3 -10 3
177 0 1 0 14.13806309922694 2.5354624107880355 5.228726525827915 4 5 1
189 0 1 0 8.414340127283621 7.601100730878884 1.4639715151680661 2 -5 -4
150 0 1 0 11.15413450182473 6.558689826445816 1.432068333063422 -4 1 -3
107 0 1 0 11.564712118408421 4.242604342505523 2.269793995954215 -2 -4 2
13 0 1 0 9.330535333199261 7.011546639283657 5.099915157402122 -4 3 0
99 0 1 0 10.729575881215606 8.13986700181248 3.1654660052484607 1 3 2
127 0 1 0 10.192547946157871 4.7833868566547135 5.459952140415862 -5 1 2
12 0 1 0 13.790065570113768 4.979180902621905 3.2568617712019607 3 13 -4
157 0 1 0 12.254840910602777 5.338786339579217 5.340475382864775 1 -5 5
38 0 1 0 13.143590154800963 7.344787820911553 0.19958444072072698 8 -4 -3
115 0 1 0 14.567606080502573 6.787315378119706 1.9204351654588834 2 0 -1
119 0 1 0 15.440174518201164 4.735412777343171 4.972326796818281 -3 -2 2
216 0 1 0 12.174539776804089 7.9836958188255815 5.25448706223615 1 7 -2
3 0 1 0 9.04071263905392 3.651129456105035 7.36673512595088 1 3 6
22 0 1 0 10.325777001336036 1.4657616561108047 7.746344573965275 5 -1 -3
105 0 1 0 11.61183520996563 3.576374547300539 10.012464216716287 3 10 -5
86 0 1 0 8.597390100258835 1.385049176897086 10.110751557629088 2 2 -3
94 0 1 0 10.86461321146124 1.2090992846198945 10.384509784468005 -5 6 3
204 0 1 0 14.662374600377174 0.26581497193845877 6.323668094919222 3 -2 -2
158 0 1 0 15.005407837997051 2.5327735705214747 9.597182904422937 0 8 12
135 0 1 0 12.69069379621243 2.423828824889638 8.09613193357187 -2 0 0
104 0 1 0 8.173482124188778 7.786637140584792 8.78443224733852 4 -1 -2
39 0 1 0 10.11257375074673 8.138947340525533 7.255006268112808 3 -4 -4
167 0 1 0 11.765192324287701 6.343465125850218 8.07851134237422 -1 3 -2
170 0 1 0 10.108537112518103 4.98617494012973 9.238864737269225 -3 -6 3
53 0 1 0 14.180479170116302 4.8298119724052535 10.102677252294782 6 -4 -6
151 0 1 0 13.621018250522809 4.758491928155802 7.348507406317344 0 1 -1
10 0 1 0 15.70465596320344 6.444369242310757 8.721463061685016 -12 0 2
186 0 1 0 13.468412817928261 7.560641799621256 9.906032471616516 5 -3 -1
4 0 1 0 10.470876198082303 3.5914128719783105 16.045628516653096 -1 6 -3
70 0 1 0 8.640817159483241 2.851444999771124 12.21339781747696 5 1 -5
106 0 1 0 9.171904022750821 0.7281891398453668 13.227001370555458 4 -4 -7
196 0 1 0 11.560908605760051 2.027643973328811 14.207784488361572 -5 -1 -4
207 0 1 0 12.088161253568304 0.4583079567487598 15.82694751457345 -2 5 6
29 0 1 0 14.211483655469623 2.166273754294158 11.988406755407588 -7 -2 -3
57 0 1 0 14.480865369819488 3.0724430511396092 14.433318953900153 0 -1 1
163 0 1 0 15.622789614175396 0.6233080399192472 13.115549133902556 5 1 0
156 0 1 0 12.482436658090421 3.874204026480451 12.511689962898323 -5 -2 2
9 0 1 0 10.278590630594497 6.007902538255896 14.81130050999852 -1 1 3
61 0 1 0 9.524968889100291 6.776317957597506 10.95214263133532 -4 1 -13
152 0 1 0 10.115054482349153 4.920425183487413 12.503116783012613 2 -3 8
1 0 1 0 8.176497298076109 4.271518819237771 14.46580756900715 2 -10 -1
25 0 1 0 8.195738149144283 7.197260302113702 14.93860028092627 -10 -4 5
160 0 1 0 12.411927909232318 6.278771127751451 14.101128055061324 -2 -5 -1
213 0 1 0 13.015652857845174 4.437689119043418 15.848862735997294 0 2 7
173 0 1 0 14.46664240256718 6.030756679809201 12.38704175257163 3 -1 0
208 0 1 0 8.933499521480119 10.295879675797547 1.1584512783857237 -4 4 2
159 0 1 0 10.732881682855988 11.359937995056622 4.25295476211066 -3 -2 10
187 0 1 0 8.707245308534562 9.859309824946042 3.439182686351151 2 4 -1
137 0 1 0 10.465314105057459 11.978558084114491 0.3401183828389443 0 -2 1
23 0 1 0 14.159830717463004 11.658269312661858 3.9171757183515443 0 1 -3
15 0 1 0 15.439256601613591 10.039884593865036 2.4760479257411703 -3 4 0
33 0 1 0 14.863913279830538 11.834870214503601 0.5013538187408862 6 -2 4
206 0 1 0 12.453152783980217 9.760200599207206 2.654195953700718 -12 -3 -6
8 0 1 0 14.083103333812033 8.513999101077017 3.737867830623108 0 -3 1
74 0 1 0 10.079986562528305 14.865613345815682 2.722918321940108 8 -4 1
120 0 1 0 9.636445878975755 13.948527305426024 5.147939658644429 -1 -9 -5
97 0 1 0 11.403911238379257 12.869345253176606 2.4092426891436167 6 -3 4
180 0 1 0 12.542325796908498 15.270381361582883 3.8906882210792797 -5 7 -2
82 0 1 0 15.681676660288321 12.800501039805663 5.469414323189312 -3 0 -4
110 0 1 0 13.770997482445072 13.43903988273685 2.481161157906856 -7 1 -3
27 0 1 0 14.440929062889795 15.581653424080095 0.5709168923663359 5 -9 -4
47 0 1 0 15.532911824575315 14.605048503526273 4.315831740005373 -2 -2 3
202 0 1 0 10.088252674040008 10.86624891156947 7.805482478585407 1 -2 -1
145 0 1 0 8.310281412803354 11.317986378197743 9.134384136690473 10 1 -4
14 0 1 0 11.288622780546572 8.351374030965834 10.569126388462124 -11 1 -6
181 0 1 0 12.614691167863704 10.841398959350103 5.54534078453052 -7 9 -2
26 0 1 0 12.800311867357664 9.27028497852114 7.6360699225279625 -4 8 2
62 0 1 0 15.48804796560992 9.098642881383507 9.124543946988688 5 -3 4
192 0 1 0 12.217334341984728 10.887677839129381 9.287814552236274 2 -2 3
76 0 1 0 15.212863242346948 10.173048190168469 7.0259096035827175 -2 -3 -5
132 0 1 0 14.551531139112933 10.407736604642883 10.656008404482353 3 2 4
63 0 1 0 11.021954130955839 12.84969269433844 6.946908108009114 3 1 3
45 0 1 0 10.36945194854061 14.649980122691975 8.45983259376487 -5 1 4
191 0 1 0 16.072897542628933 13.824281698078476 7.754757669893279 -4 -5 6
108 0 1 0 13.384225579135865 14.064943513685865 10.385501703671899 4 4 -2
178 0 1 0 13.69798889173605 12.499270836539715 7.608620996665756 -3 -5 1
40 0 1 0 15.531617584801321 15.858877398056363 9.318351410703567 0 -3 9
90 0 1 0 12.665571965048075 14.855513555284661 6.3946208461076814 4 6 1
125 0 1 0 12.86586427642853 15.75649440342558 8.775912433155074 4 2 -4
54 0 1 0 9.524912088060065 10.172639095015263 13.543153590397589 -3 1 4
87 0 1 0 10.48570932165335 8.765072181416675 14.92646840930602 1 -3 -1
147 0 1 0 12.064964471940437 10.116198360558252 16.009176668013314 1 5 -6
37 0 1 0 10.368401277492607 10.551005998048925 10.899554139881447 -6 -2 7
24 0 1 0 12.395264839351583 8.707101235102439 12.70379045311743 8 7 4
83 0 1 0 15.078805516417614 9.126244961467812 16.07077491121815 3 2 6
18 0 1 0 15.828999896529664 10.639030629134165 13.855365429394011 -1 3 -4
171 0 1 0 15.063499786797875 8.569543062020712 12.55366800210209 3 -5 1
138 0 1 0 13.10861474443936 10.724995893822326 14.139851577189827 11 -2 1
188 0 1 0 11.081155923264292 12.345952715709034 12.554193272738885 0 4 3
210 0 1 0 8.609942173666788 13.484230450182318 11.17904673051282 -13 1 7
16 0 1 0 8.59642033515747 15.125099186287672 15.74592000133087 2 2 -4
95 0 1 0 9.581014190363852 13.441395359856688 14.32444753372302 -2 5 2
34 0 1 0 11.473595083533255 15.173358346091415 13.734272563644884 7 -8 3
81 0 1 0 10.888817476918588 14.281167042952443 10.897515719520735 -3 0 -6
161 0 1 0 16.08185400067164 14.030419836955106 11.097884189786287 -6 1 -9
101 0 1 0 12.704486306086638 16.089418086287854 11.8957821833752 0 -3 7
198 0 1 0 13.621478377274965 12.50277606106283 12.313502346798296 -10 -2 2
113 0 1 0 15.423434361463617 14.075630731167346 13.559830142565927 -1 -1 3
100 0 1 0 13.560195405332953 13.427574970660734 14.920020376625402 -3 8 -13

Velocities

114 3.6595291985596927 -13.759358270602378 -1.9292371248896396
65 3.8365935603420507 -0.2414033600102371 5.619404101487326
194 -5.9240481913075556 -5.569181689008034 3.0585638889870506
79 -11.535689153548141 -9.219289553485863 -0.21216363797360385
103 -9.093366496266004 -1.2024474878143703 -5.074659193990681
146 -15.864478172654733 0.7516911077979349 16.745769049510567
199 -0.628736563570324 -1.0189956346402738 16.563869790537225
66 2.2099702399286696 -9.419040327414722 1.2952709361793755
92 -3.636084685285339 13.063431125868126 -8.613915586874334
123 9.7617826090976 0.3982323606089194 -1.7573439764199634
136 8.05834521886796 -0.03059005805466742 8.193464657104558
44 -2.6138918798249278 0.14513242808597282 4.890264584866662
60 10.79391613136842 0.3305287285437114 -3.0139088054082634
141 -5.615738094116383 7.210063900287883 -3.810098299200815
165 5.37494805366812 2.4782397304714774 -1.3140066334697282
142 -0.8323828425637111 0.9785002153705904 3.3522506383045814
143 -6.296124822872835 2.477715745213346 9.625686726733463
48 -2.0152181974060164 -2.966641093404012 5.17557767869487
126 -2.8881885862669643 -1.8183787658706216 -6.2037084751206075
20 15.275573904677222 -2.7394942570827787 0.5038677609291129
154 -5.2453321451333315 -2.7582326145028837 -18.405030467323268
89 4.448671842950175 -2.785755796779769 -1.6954687771451897
80 -4.843696346391428 -3.511882165972688 -11.08425838650356
58 -4.117456854639997 -5.450125437330248 -0.2516733835589528
128 0.4202795056656048 -1.1120541754023867 3.774953088877954
116 1.7561183273290728 -9.414349323874628 2.0045312406994915
112 -2.4625683628167825 -8.171899618075605 -8.863691617584644
183 -5.89456142540439 3.1225623130191478 -4.01771866618091
139 4.867782275262839 3.326110442036835 2.3398500837150698
67 4.485777912208457 -9.402399729288236 3.455044105582018
50 2.043151370527879 6.526956428697227 15.054003470324439
211 -2.098473543316949 1.4400992817024105 -6.649399754570107
19 -7.057128666573374 -14.42047152509742 2.2077211192921435
102 -16.691501818056768 -1.703009096102639 -9.952812285801349
51 4.710657394044196 -8.008872722782954 -1.9951511914829132
168 -7.604833359511601 -0.1562514939873201 -12.16613975127774
55 2.3385814619694987 1.3901915648423508 5.490615159877178
155 1.8322398668161097 -2.4505107305696514 -0.024800749493681464
43 12.554278183730531 11.347114539415143 7.246359356457433
144 4.825870534010253 -4.494712740896362 -1.7350249955478692
133 -6.713782989673439 1.8164072801892253 -3.462496447429431
193 -1.3608039488747454 5.655333156910329 13.628947254403831
111 4.021365842182936 1.5847858218023354 6.9766114583584615
91 6.864215555997816 -7.032695929887955 2.3591422301102285
184 -12.952159053472945 7.898238398308867 -2.5408194633346852
5 18.28822090129891 10.173174600204469 1.6190663862139438
148 -4.048254768326605 -3.727699427338658 6.510684121323989
17 -3.496153570014761 -4.275631268101755 -11.841812310409821
7 7.987955552403551 -13.30952230084819 13.359862819067649
201 9.620303305015446 -0.8664365942829888 16.370834650791913
71 13.489868051700855 16.76281703213308 -6.409569351775309
64 -2.423870452372032 -9.151114425336772 9.874273204109343
129 2.9107902963377152 9.583201133735395 5.021188276267176
203 -14.462702793208353 -4.6898260130487115 -2.129916384814029
172 13.461576024686968 1.4392711186964653 -0.2518559799119462
164 -4.785780043342828 1.8214696570211772 -12.307713343499339
21 10.843278251937173 -4.7555970904753 -3.911361052122251
84 14.526638094463548 11.128662707813845 -7.904883699828362
52 -6.169959108119485 -8.166765555856731 -1.0494378882689994
117 4.618407745483609 -8.566486332860988 7.34650355928906
49 -8.738035296105265 -5.0855136533300165 9.835060164340293
140 -3.775249455149073 -7.132139199522603 1.4705885823118234
6 0.684889618308704 3.278321312413274 -0.6794297001879059
182 -6.4024984629659105 -4.266305811867748 1.6230340000562198
162 -1.3438787376455492 -6.512755513729894 -0.5907672828239412
205 -5.113083581384039 17.388717556124607 -13.745908885942606
96 -8.188423246559537 -1.2377699702547638 -9.268455393877568
78 -3.954222183695285 -3.487966567646422 -6.688827029660576
124 -0.06669627989034238 1.5100501623919853 3.387902536967033
209 1.8613673823968468 13.374054462392872 -5.867932828644793
88 -3.8766609590054872 -5.051061585809807 -0.6876320948408134
31 8.807538497002414 -6.030523775415543 -4.627120275133805
169 6.720214086023512 -4.252686934175709 3.6675109414252476
185 -3.164459499971375 -1.8500392802145407 -5.244325201665734
174 -0.6252708044614363 1.9577680976768739 0.04429744811194424
176 -0.9239039568747593 1.2887154142965789 9.22723396845478
41 -2.018135009365696 -14.730517268399858 -10.84195781867944
212 -2.5035426382094355 5.907654267000675 -13.030269044630252
166 -0.748195785247521 -6.735307624311254 -19.66286811106916
77 11.09816313246096 -8.437859600653706 -9.848951292512465
85 2.9048264056927056 5.113343196969801 6.216324200508899
93 -5.535799893671871 -6.8142901547301165 -1.8600001142191398
130 11.1315682460384 5.620784675761588 8.216250799740903
35 -7.33000111475897 -2.111258156582888 1.9223262320512193
197 0.07906845854252538 5.935275597631679 -1.3151056003822288
109 -15.10519381483226 2.5330456769331215 -2.435153750631039
122 2.6719891437186862 5.32734506723316 -2.6855436901969134
134 -18.34205366221278 0.7116442172781775 -5.348282234779146
200 -8.6674824319588 0.7732769976844562 -5.690266797214408
30 -6.1543899918123595 -2.1502541357116702 -8.462429368735963
179 5.922017604675518 -6.78141127976988 5.224683355428735
195 -1.6391037438271168 -9.847875056859925 11.377747209387973
59 3.0101646864039036 -1.0044015337597687 6.364999378378982
42 0.9532934865107924 -1.5430375329484698 3.2872169561567497
72 -10.798019158119255 4.624985119124581 -6.200643895707512
11 2.9244966872457976 -10.720523703662764 -11.740072574494068
121 5.436238246592613 -7.2095009182654515 -3.7415757641894123
215 -3.823861036322498 -7.955537931748007 -9.32242150054213
69 -0.18113248867027865 -8.34474853521516 -8.74076350630451
75 11.636253359690897 -13.14020412632164 8.27355863102771
214 -0.5046937957727636 2.647589221279446 -16.926082822299385
36 -0.5814295664492666 2.4879591960775675 -8.669489143881298
28 5.416868866748811 11.094023307092842 2.755088668452174
46 -2.4805673938857464 -1.7380947522065755 4.073183369880064
175 4.2795978286412035 0.10921227500972419 2.884568324132135
149 -15.061279048028958 -9.789571693930252 0.6745586671298107
190 15.406641583147637 4.385297467504674 0.24184795316741428
56 7.474295224496656 9.434840120758961 -0.7933204659631825
98 2.138796123942628 -1.865995740723283 2.359959009229213
68 -18.648391168389676 -5.956140898860479 10.069639261409918
32 -3.3057756505611806 -5.819034021397702 5.782506662812959
131 5.049478527366534 -4.512308853232023 9.236369173509559
73 4.59196223699039 10.75870973587224 4.719422962676729
2 -1.9990156364924174 3.1778941506056526 -6.800257381633517
118 -2.6252819279555575 1.3091403031946918 0.028868850347786905
153 1.9406437509046208 -2.241591047732467 -0.7564171616977504
177 -6.792026962769101 -3.5138521303459505 11.972009487987348
189 -2.7768927820268323 -2.1038248137002595 10.947568649349169
150 1.6004084781975354 -5.501174425699846 0.39391312329183026
107 1.6066683009059883 3.3456187207341896 -7.1115967135209885
13 4.812201982128164 11.73598705708665 3.4934534527263845
99 -1.842746780828598 -16.02195798730107 3.6639953662640754
127 4.928441535787934 1.8442816150657289 -2.740558178424457
12 8.591146040970402 9.92737493994972 -11.785381213273764
157 -0.1224025192900797 -0.9876916625602362 5.406826893017059
38 -1.4406467853621923 -3.415496849249776 -14.597824580732203
115 -5.949354877979025 1.3939823690607789 -0.6141948606150719
119 -7.455135798455042 0.9079326446006696 -8.453269374523808
216 -2.9737910182741523 3.9914332190828232 -6.73072173847945
3 12.71373902824527 6.2128920006290596 6.466462923022168
22 10.959909473720877 -4.564937550721825 -4.5097655019366005
105 4.3312989586568635 -0.60966301367211 2.86615860505535
86 7.283833691194537 5.048222410022671 3.2202110695420965
94 -0.8745671083342671 7.005783065194596 -0.41057432775488845
204 1.8131953129621212 10.681733277222614 1.432205442993442
158 -9.42943003786426 0.8301436093344914 4.223821949405064
135 1.0599128035527192 6.612744036134598 -17.078192451663597
104 -10.385584145520074 2.4723020045096713 3.130265026755968
39 4.479859508556768 -3.1523219017310513 2.7352692494367847
167 -1.0148498143031683 -1.3900959980321483 15.48024241705157
170 -3.473968775001271 -6.293279582068418 -2.5016067039397196
53 0.6535649647846773 -1.465647931653843 5.086944976860214
151 1.1998314100213303 -4.9551069771834895 4.460874951957085
10 -9.760021606711694 -0.44991389106538615 3.739204239666101
186 0.04085001633834916 1.6049277061937124 1.534878913994227
4 -15.547807017809927 4.492557727002877 -4.123647287888987
70 5.675872771412369 12.047261281184026 -2.7535488408832114
106 5.002296431984132 4.901371239355526 15.525587522775501
196 3.5975442880893613 6.293215652884737 1.8505787230297652
207 1.1925962560458565 1.8136746165087705 -2.2866236270150972
29 -4.643474026302852 -0.6959322645480345 3.375542963606806
57 5.100468554642219 -2.203838887981209 7.218947412011785
163 12.842197681375072 12.982005824418879 2.5572064827493026
156 -1.4884736738515143 -7.435434803043045 -5.7897483119919615
9 -13.17164006569344 -8.866166765064802 9.875996165917877
61 -8.831350830169349 4.91061433381225 -4.148155416118001
152 10.316274225326659 5.9848751858190745 6.867052106026604
1 0.8924358698096365 -2.54036864285597 -7.571938381142091
25 7.108728908310432 2.7881687624398297 6.212274547452051
160 4.877112366959144 4.998398627402805 -1.2260688121350172
213 0.33863138896038797 -2.1636758481854717 -2.5703628013807114
173 3.795863531774659 -5.548911473746354 -6.387314828671683
208 2.5150442315806236 0.21255015867674582 -6.405031476153081
159 7.060286420509603 7.16166890192705 2.4244207174146633
187 -6.811752425184351 -2.735294071663633 -0.39882514559055127
137 -1.4540742108690428 -7.465771253298181 4.3031396341688515
23 6.11100710011815 -4.157220655381253 -3.913445522332198
15 2.861289557201977 0.4293793443088715 18.01255341018228
33 0.895489378637866 -2.9950897985199822 2.717004803398877
206 -13.391901167097657 7.292030740117515 -3.812656804989309
8 16.048124068306095 0.555052955845704 -4.848559963555401
74 -4.0872663605513395 5.22553427635576 0.2489025505826121
120 5.739969448737737 -0.7242752021638197 -4.957758078808249
97 8.364505792534342 5.522388565115834 -13.37131905832397
180 5.360127390910145 5.767911799474502 -8.08056083865953
82 -3.0910223226239975 5.812371984668788 -2.147490213978381
110 -0.15076049802904437 4.647944527449601 -9.472633239849552
27 2.4521418065487306 -3.924554607733682 -7.763398642463505
47 0.5499673340409265 8.292867006571527 -7.324677993438483
202 4.954316898024157 12.970453777927494 -0.4652126863622519
145 -1.0001652788986604 -2.979581478404757 15.689660429736513
14 -8.076874496942695 7.269646731331952 -1.8548546072517402
181 -4.639667790923221 2.4637086345507555 -7.381580691238025
26 -12.965988357950158 12.357393925534245 12.293968578218811
62 -1.8692657461463529 -4.732496941620771 -4.733753615105424
192 -9.183156517412511 -9.541501593552036 2.7347850549593558
76 -16.69490890138944 0.16691988581913178 -0.5458299708920262
132 10.499488036067145 0.943307022896138 8.052119254404047
63 -2.5713848110218156 -2.811818793195587 5.630738436171979
45 1.380363879518959 3.0328418569980733 3.7539926020334806
191 -0.06350222558923865 -7.022589967703748 1.5163704499799011
108 -4.285510958637416 -4.4021408482404265 6.959794365629596
178 -12.263233668548649 10.311887182943668 -2.5148144393168645
40 -3.5898473742747945 -7.278612984627615 8.504632320148495
90 2.9646333789074046 3.944347684875285 -7.103414363969385
125 0.33949254111435656 -0.9403379104384382 0.06425306408726325
54 -3.308721188110684 -6.684425721269106 9.993466506926337
87 4.5007913829702835 7.354946576661759 -3.2674278496243625
147 -14.323297984174157 0.5275776828095226 6.487247023435298
37 1.359689319436017 7.333092864421207 -3.3244548767048663
24 11.451604518875508 -4.273381681384113 3.989593830840524
83 7.076224525378379 -4.466776041645002 -4.693571905570592
18 9.670815096316646 4.804607125009437 9.161998959387686
171 2.3264963103048415 17.00431052387546 -1.0073640861864563
138 4.558852410137019 1.3258015700832395 -9.32433683219052
188 -6.4635538729050666 1.0172639376673696 4.467887404014761
210 5.938103315855177 7.052357371870208 -10.930659331508785
16 -2.2176764155352107 0.12953048189005992 -6.203103968326633
95 15.937398136056778 2.3404237042742264 -8.14702508210278
34 -8.937012054997123 5.372046193667353 14.688321842542766
81 -0.466384784738353 -0.2921859179954536 0.23662329605156993
161 11.591324040824764 2.535353982886576 11.65222914771884
101 3.2370192771526836 6.881697811671683 9.482257191661208
198 -5.006364199594774 -8.150779340024307 2.664363541237147
113 -1.4695698980534295 -15.164354657029563 -16.576675737075607
100 -4.630787280924206 8.859535198467986 4.717133605341624
