LAMMPS (23 Jun 2022 - Update 3)
OMP_NUM_THREADS environment is not set. Defaulting to 1 thread. (src/comm.cpp:98)
  using 1 OpenMP thread(s) per MPI task
echo both

# Define some variables
variable	temperature equal 1720.
variable	temperature2 equal 2500.
variable	tempDamp equal 0.1 # approx 0.1 ps
variable	pressure equal 1.
variable	pressureDamp equal 1.0
variable	seed equal 20000802

# Setup
units		metal
atom_style	full

# Initial configuration
# Cubic diamond lattice
lattice 	diamond 5.4307
Lattice spacing in x,y,z = 5.4307 5.4307 5.4307
region          myreg block 0 3 0 3 0 3
create_box      1 myreg
Created orthogonal box = (0 0 0) to (16.2921 16.2921 16.2921)
  2 by 2 by 3 MPI processor grid
create_atoms    1 region myreg
Created 216 atoms
  using lattice units in orthogonal box = (0 0 0) to (16.2921 16.2921 16.2921)
  create_atoms CPU = 0.003 seconds
variable 	mass equal 28.0855
mass            1 ${mass}
mass            1 28.0855

# More setup options
variable	out_freq equal 500
variable	out_freq2 equal 500
neigh_modify    delay 10 every 1
pair_style 	sw
pair_coeff 	* * Si.sw Si
Reading sw potential file Si.sw with DATE: 2007-06-11
timestep	0.002
thermo          ${out_freq}
thermo          500
thermo_style 	custom step temp pe press lx
restart 	${out_freq} Restart.lmp Restart2.lmp
restart 	500 Restart.lmp Restart2.lmp

# Perform minimization
minimize 1.0e-2 1.0e-3 100 1000
WARNING: Using 'neigh_modify every 1 delay 0 check yes' setting during minimization (src/min.cpp:187)
Neighbor list info ...
  update every 1 steps, delay 0 steps, check yes
  max neighbors/atom: 2000, page size: 100000
  master list distance cutoff = 5.77118
  ghost atom cutoff = 5.77118
  binsize = 2.88559, bins = 6 6 6
  1 neighbor lists, perpetual/occasional/extra = 1 0 0
  (1) pair sw, perpetual
      attributes: full, newton on
      pair build: full/bin
      stencil: full/bin/3d
      bin: standard
Per MPI rank memory allocation (min/avg/max) = 7.137 | 7.137 | 7.137 Mbytes
   Step          Temp          PotEng         Press            Lx      
         0   0             -936.70557      139.96968      16.2921      
         1   0             -936.70557      139.96968      16.2921      
Loop time of 0.0776875 on 12 procs for 1 steps with 216 atoms

91.2% CPU use with 12 MPI tasks x 1 OpenMP threads

Minimization stats:
  Stopping criterion = energy tolerance
  Energy initial, next-to-last, final = 
     -936.705573919038  -936.705573919038  -936.705573919038
  Force two-norm initial, final = 2.4095498e-13 1.8134305e-13
  Force max component initial, final = 2.1391851e-14 2.136789e-14
  Final line search alpha, max atom move = 1 2.136789e-14
  Iterations, force evaluations = 1 2

MPI task timing breakdown:
Section |  min time  |  avg time  |  max time  |%varavg| %total
---------------------------------------------------------------
Pair    | 3.6059e-05 | 3.7128e-05 | 3.812e-05  |   0.0 |  0.05
Bond    | 1.71e-07   | 2.0008e-07 | 2.3e-07    |   0.0 |  0.00
Neigh   | 3.8379e-05 | 3.9062e-05 | 3.9827e-05 |   0.0 |  0.05
Comm    | 0.00024914 | 0.00038034 | 0.0006351  |   0.0 |  0.49
Output  | 0          | 0          | 0          |   0.0 |  0.00
Modify  | 0          | 0          | 0          |   0.0 |  0.00
Other   |            | 0.07723    |            |       | 99.41

Nlocal:             18 ave          18 max          18 min
Histogram: 12 0 0 0 0 0 0 0 0 0
Nghost:            353 ave         353 max         353 min
Histogram: 12 0 0 0 0 0 0 0 0 0
Neighs:              0 ave           0 max           0 min
Histogram: 12 0 0 0 0 0 0 0 0 0
FullNghs:          612 ave         612 max         612 min
Histogram: 12 0 0 0 0 0 0 0 0 0

Total # of neighbors = 7344
Ave neighs/atom = 34
Ave special neighs/atom = 0
Neighbor list builds = 1
Dangerous builds = 0

reset_timestep 	0

# NVT equilibration

fix             1 all nve
fix             2 all temp/csvr ${temperature2} ${temperature2} ${tempDamp} ${seed}
fix             2 all temp/csvr 2500 ${temperature2} ${tempDamp} ${seed}
fix             2 all temp/csvr 2500 2500 ${tempDamp} ${seed}
fix             2 all temp/csvr 2500 2500 0.1 ${seed}
fix             2 all temp/csvr 2500 2500 0.1 20000802

velocity        all create ${temperature2} ${seed} dist gaussian
velocity        all create 2500 ${seed} dist gaussian
velocity        all create 2500 20000802 dist gaussian
run             50000
Per MPI rank memory allocation (min/avg/max) = 6.012 | 6.012 | 6.012 Mbytes
   Step          Temp          PotEng         Press            Lx      
         0   2500          -936.70557      17300.512      16.2921      
       500   2320.3924     -854.72164      18499.411      16.2921      
      1000   2520.8895     -848.57976      17714.382      16.2921      
      1500   2502.8551     -856.18761      22832.566      16.2921      
      2000   2612.2892     -860.04789      19591.999      16.2921      
      2500   2507.985      -854.32309      19302.965      16.2921      
      3000   2566.5177     -854.2276       16228.884      16.2921      
      3500   2707.703      -850.07988      24589.694      16.2921      
      4000   2379.9119     -853.37495      20226.26       16.2921      
      4500   2448.8931     -852.27352      23867.38       16.2921      
      5000   2653.9831     -853.49687      21604.976      16.2921      
      5500   2231.7996     -851.50751      22021.446      16.2921      
      6000   2492.2685     -839.64225      17711          16.2921      
      6500   2323.4494     -824.52382      7879.2039      16.2921      
      7000   2416.0942     -804.48219     -6890.0444      16.2921      
      7500   2637.0206     -780.79468     -19304.299      16.2921      
      8000   2547.5058     -768.3363      -11370.828      16.2921      
      8500   2222.8906     -778.46477     -34256.044      16.2921      
      9000   2825.5487     -782.51042      2232.7234      16.2921      
      9500   2390.5039     -778.3629      -20592.562      16.2921      
     10000   2616.4162     -777.60778     -12820.968      16.2921      
     10500   2362.4651     -782.93664     -30775.256      16.2921      
     11000   2550.6012     -774.73294     -4980.7627      16.2921      
     11500   2527.4404     -776.64957     -21313.815      16.2921      
     12000   2259.2438     -778.50425     -15794.671      16.2921      
     12500   2425.5708     -776.47096     -20444.197      16.2921      
     13000   2511.8352     -778.6608      -18967.684      16.2921      
     13500   2322.7397     -771.90267     -29094.013      16.2921      
     14000   2271.6447     -775.67257     -14274.838      16.2921      
     14500   2784.9163     -779.05418     -18805.134      16.2921      
     15000   2475.1961     -779.51546     -28554.607      16.2921      
     15500   2569.1983     -775.18739     -23050.169      16.2921      
     16000   2536.9945     -778.01506     -14054.306      16.2921      
     16500   2618.8093     -778.43083     -22091.481      16.2921      
     17000   2470.9243     -779.47562     -22743.45       16.2921      
     17500   2277.8999     -775.65876     -21456.436      16.2921      
     18000   2346.5558     -782.55927     -23519.476      16.2921      
     18500   2449.4363     -775.77849     -36239.286      16.2921      
     19000   2707.427      -771.17177     -23528.129      16.2921      
     19500   2542.8776     -774.14186     -16399.368      16.2921      
     20000   2294.7327     -771.12517     -13153.44       16.2921      
     20500   2647.3537     -773.36511     -44546.489      16.2921      
     21000   2321.8018     -776.16644     -39882.196      16.2921      
     21500   2417.812      -772.80065     -30277.214      16.2921      
     22000   2739.6667     -779.35058     -7287.5443      16.2921      
     22500   2390.8239     -781.12153     -23449.796      16.2921      
     23000   2552.2183     -782.48254     -44945.33       16.2921      
     23500   2568.3206     -775.21092     -7822.0961      16.2921      
     24000   2514.6004     -776.3085      -29580.89       16.2921      
     24500   2267.2515     -780.15438     -26784.988      16.2921      
     25000   2419.2236     -780.26593     -27522.508      16.2921      
     25500   2399.4214     -777.14462     -19775.244      16.2921      
     26000   2424.0903     -780.82553     -39605.211      16.2921      
     26500   2730.8744     -779.31041     -13424.074      16.2921      
     27000   2603.3386     -776.72026     -21367.322      16.2921      
     27500   2513.844      -776.34891     -19634.225      16.2921      
     28000   2383.186      -780.50884     -27726.759      16.2921      
     28500   2465.0975     -771.19084     -41323.98       16.2921      
     29000   2642.8306     -780.69995     -30048.22       16.2921      
     29500   2454.0703     -776.57138     -20218.611      16.2921      
     30000   2468.8162     -777.21677     -21918.165      16.2921      
     30500   2576.0407     -778.95669     -33415.952      16.2921      
     31000   2443.9413     -776.43842     -3577.8242      16.2921      
     31500   2532.9404     -779.22081     -24057.868      16.2921      
     32000   2443.8075     -774.32389     -20589.894      16.2921      
     32500   2781.5507     -778.85683     -28908.228      16.2921      
     33000   2405.8537     -778.70271     -13388.042      16.2921      
     33500   2958.1998     -779.69742     -24272.339      16.2921      
     34000   2627.1639     -777.81188     -44760.34       16.2921      
     34500   2211.8622     -779.52907     -20678.533      16.2921      
     35000   2226.4333     -769.19831     -24127.989      16.2921      
     35500   2612.9074     -775.75767     -1193.9303      16.2921      
     36000   2291.3833     -771.75139     -23873.339      16.2921      
     36500   2390.8563     -779.79307     -17783.667      16.2921      
     37000   2280.2551     -779.45483     -5152.8151      16.2921      
     37500   2473.5964     -782.03836     -40630.094      16.2921      
     38000   2554.8164     -776.11036     -19920.392      16.2921      
     38500   2444.1191     -776.0344      -35846.182      16.2921      
     39000   2669.9547     -778.9644      -13875.433      16.2921      
     39500   2449.3917     -778.24959      4451.9832      16.2921      
     40000   2263.1431     -782.32662     -15328.572      16.2921      
     40500   2483.1347     -781.04789     -8286.2295      16.2921      
     41000   2815.7838     -771.52667     -14994.184      16.2921      
     41500   2506.9303     -777.25998     -18152.982      16.2921      
     42000   2409.1094     -773.30668     -21994.647      16.2921      
     42500   2489.9503     -770.23534     -49726.411      16.2921      
     43000   2609.8321     -780.55287     -16282.466      16.2921      
     43500   2527.9979     -780.95398     -24064.703      16.2921      
     44000   2441.8761     -779.50813     -30832.209      16.2921      
     44500   2205.1963     -781.98731     -31677.196      16.2921      
     45000   2386.8727     -771.91823     -19534.279      16.2921      
     45500   2601.2977     -781.19243     -21493.408      16.2921      
     46000   2342.684      -782.06279     -26444.471      16.2921      
     46500   2462.7891     -778.75308     -17131.598      16.2921      
     47000   2851.9085     -778.12026     -33967.974      16.2921      
     47500   2536.2199     -775.58662     -29857.016      16.2921      
     48000   2368.3525     -772.82813     -26316.626      16.2921      
     48500   2354.5866     -766.79211     -33085.644      16.2921      
     49000   2521.5306     -778.60924     -31292.068      16.2921      
     49500   2633.1716     -776.92606     -26526.375      16.2921      
     50000   2500.2346     -781.23925     -41109.945      16.2921      
Loop time of 4.39262 on 12 procs for 50000 steps with 216 atoms

Performance: 1966.934 ns/day, 0.012 hours/ns, 11382.721 timesteps/s
99.4% CPU use with 12 MPI tasks x 1 OpenMP threads

MPI task timing breakdown:
Section |  min time  |  avg time  |  max time  |%varavg| %total
---------------------------------------------------------------
Pair    | 2.3164     | 2.3521     | 2.4046     |   1.5 | 53.55
Bond    | 0.0018849  | 0.0022662  | 0.0025395  |   0.4 |  0.05
Neigh   | 0.11232    | 0.11421    | 0.11595    |   0.3 |  2.60
Comm    | 1.4893     | 1.5327     | 1.5739     |   1.9 | 34.89
Output  | 0.10825    | 0.10835    | 0.1088     |   0.0 |  2.47
Modify  | 0.18038    | 0.21224    | 0.23226    |   3.8 |  4.83
Other   |            | 0.0708     |            |       |  1.61

Nlocal:             18 ave          20 max          14 min
Histogram: 1 0 0 2 0 1 2 0 3 3
Nghost:          311.5 ave         322 max         304 min
Histogram: 2 2 2 1 0 1 1 1 0 2
Neighs:              0 ave           0 max           0 min
Histogram: 12 0 0 0 0 0 0 0 0 0
FullNghs:      700.167 ave         784 max         530 min
Histogram: 1 0 0 2 0 1 1 2 3 2

Total # of neighbors = 8402
Ave neighs/atom = 38.898148
Ave special neighs/atom = 0
Neighbor list builds = 2617
Dangerous builds = 0

unfix           1
unfix           2

# NPT equilibration

fix             1 all nph iso ${pressure} ${pressure} ${pressureDamp}
fix             1 all nph iso 1 ${pressure} ${pressureDamp}
fix             1 all nph iso 1 1 ${pressureDamp}
fix             1 all nph iso 1 1 1
fix             2 all temp/csvr ${temperature2} ${temperature2} ${tempDamp} ${seed}
fix             2 all temp/csvr 2500 ${temperature2} ${tempDamp} ${seed}
fix             2 all temp/csvr 2500 2500 ${tempDamp} ${seed}
fix             2 all temp/csvr 2500 2500 0.1 ${seed}
fix             2 all temp/csvr 2500 2500 0.1 20000802

velocity        all create ${temperature2} ${seed} dist gaussian
velocity        all create 2500 ${seed} dist gaussian
velocity        all create 2500 20000802 dist gaussian
run             50000
Per MPI rank memory allocation (min/avg/max) = 6.012 | 6.012 | 6.012 Mbytes
   Step          Temp          PotEng         Press            Lx      
     50000   2500          -781.23925     -41111.556      16.2921      
     50500   2322.0817     -779.37868     -13664.113      16.154733    
     51000   2660.9793     -783.46713      15639.247      16.053791    
     51500   2465.7927     -782.88244     -6489.1129      16.101958    
     52000   2650.5391     -790.1396       19119.847      15.961101    
     52500   2601.8899     -783.52074      10489.913      16.11308     
     53000   2492.7683     -781.089       -14107.436      16.196497    
     53500   2987.6988     -781.95637      8848.294       16.083525    
     54000   2671.7504     -790.1392       10351.96       16.059331    
     54500   2435.328      -784.08897     -773.20552      16.078265    
     55000   2568.0253     -781.79        -8190.7249      16.069623    
     55500   2466.4223     -785.35485     -16983.657      16.141461    
     56000   2618.3452     -778.33468     -4796.2797      16.192385    
     56500   2371.1712     -777.72225      321.15722      16.102554    
     57000   2373.2998     -782.90412     -19494.439      16.114534    
     57500   2689.2583     -784.8683      -2556.6393      16.110853    
     58000   2672.7479     -779.5052      -14367.743      16.163605    
     58500   2289.1049     -788.61541     -7266.6991      16.114509    
     59000   2652.2172     -783.92894      16602.093      16.047874    
     59500   2417.1031     -786.36364      3452.5192      16.06374     
     60000   2444.5471     -775.54619      16996.767      16.032503    
     60500   2103.2334     -783.92395     -4659.5544      16.095874    
     61000   2597.4423     -783.33563      23939.83       16.098391    
     61500   2592.3044     -786.29776      17421.131      16.058512    
     62000   2438.3274     -791.08647      1253.6335      16.145425    
     62500   2603.2201     -788.62697      13542.933      16.038397    
     63000   2458.4312     -783.97729      4633.3919      16.109669    
     63500   2636.6705     -786.03364      2417.6795      16.118239    
     64000   2315.7488     -785.38791     -4622.1561      16.086464    
     64500   2584.1719     -782.02163      11433.444      16.118693    
     65000   2444.7635     -782.33528      13693.386      16.042352    
     65500   2451.3449     -778.65033      5413.8756      16.087603    
     66000   2494.6033     -781.1795       1538.518       16.118192    
     66500   2603.3901     -788.66419     -17286.351      16.133562    
     67000   2624.4033     -790.96288      2629.824       16.073874    
     67500   2537.508      -793.32227     -11076.045      16.073427    
     68000   2361.0936     -788.97141      1790.1506      16.097802    
     68500   2417.5074     -782.54907      27580.696      16.074124    
     69000   2887.3311     -784.62911     -10224.983      16.075295    
     69500   2464.2269     -780.02943     -8247.7766      16.077141    
     70000   2453.4355     -781.82545      6664.7097      16.121541    
     70500   2779.4137     -787.11807     -15940.316      16.066468    
     71000   2366.6473     -782.16266     -11333.73       16.13742     
     71500   2679.6644     -791.43501      3536.5686      16.082432    
     72000   2532.3048     -780.71761     -5717.4827      16.158628    
     72500   2446.9506     -790.67725      8340.6659      16.071496    
     73000   2526.5346     -790.03575      6057.0592      16.127731    
     73500   2674.1346     -785.0271       15233.968      16.065498    
     74000   2523.3736     -784.16339     -2123.7429      16.185857    
     74500   2363.5803     -788.9334       8493.1174      16.0156      
     75000   2347.5261     -786.04954     -16640.511      16.128039    
     75500   2413.2456     -781.69419     -8844.4082      16.15915     
     76000   2506.486      -790.02611      2155.4528      16.033773    
     76500   2697.7619     -781.04223     -11464.802      16.112448    
     77000   2530.7965     -780.26874     -9451.4177      16.05755     
     77500   2392.7308     -782.1331       23058.801      16.085768    
     78000   2453.3221     -787.54329      16514.341      16.068336    
     78500   2634.2737     -782.61196     -26847.822      16.166019    
     79000   2434.1488     -782.60621      24144.587      15.997226    
     79500   2481.4724     -783.22265      6968.5913      16.052986    
     80000   2486.5329     -781.44442     -9716.0939      16.199573    
     80500   2619.2631     -784.79385     -14263.27       16.152435    
     81000   2549.9569     -784.59231     -6849.3525      16.167216    
     81500   2335.9965     -778.03341      8945.0908      16.193887    
     82000   2519.9214     -787.46436      1676.7811      16.095156    
     82500   2661.2092     -779.6934       3750.1761      16.228891    
     83000   2491.4094     -789.28779      4850.4977      16.047718    
     83500   2700.6757     -775.94487     -6340.7978      16.072407    
     84000   2546.4811     -785.85333      6481.2753      16.035713    
     84500   2374.0516     -786.5239      -14269.302      16.079833    
     85000   2579.7104     -787.0322       441.94322      16.17427     
     85500   2628.3051     -781.52781     -12408.251      16.119349    
     86000   2305.8637     -779.56495     -16695.313      16.203323    
     86500   2582.2352     -793.66545      10474.363      16.035825    
     87000   2375.8193     -787.16893     -11948.007      16.061587    
     87500   2358.1016     -785.88981     -8074.7054      16.140308    
     88000   2545.7621     -790.75114      2817.7922      16.038033    
     88500   2407.0552     -782.88114      6479.0115      16.047761    
     89000   2545.4925     -781.05524      1716.4014      16.147211    
     89500   2336.1677     -781.81326     -12840.422      16.153082    
     90000   2397.6489     -791.07965      13272.94       16.004798    
     90500   2680.095      -789.3478       31243.556      15.982805    
     91000   2710.5259     -779.7848       18350.496      16.080187    
     91500   2505.3449     -784.29676     -6026.1246      16.122488    
     92000   2517.6015     -783.46552      4519.0508      16.138491    
     92500   2801.748      -785.49605     -1248.0733      16.091931    
     93000   2529.0768     -784.69629      15311.324      16.072069    
     93500   2556.6148     -786.71137      6754.1688      16.09956     
     94000   2542.1788     -788.14591     -5377.9785      16.049779    
     94500   2398.5131     -795.6829      -6039.1462      16.112851    
     95000   2614.9193     -780.96695     -2448.1386      16.190602    
     95500   2529.5464     -785.78995      17553.416      16.076539    
     96000   2367.4542     -790.60876      10962.138      16.044804    
     96500   2393.3033     -783.74612      8414.1545      16.040238    
     97000   2622.7941     -778.20171     -17049.78       16.136732    
     97500   2665.5088     -785.04469      16795.966      16.048956    
     98000   2417.069      -780.57643      31253.365      16.034899    
     98500   2438.7354     -779.15345     -2945.6211      16.191898    
     99000   2418.317      -784.40664     -11925.616      16.146824    
     99500   2637.951      -784.02439      18965.43       16.063546    
    100000   2352.8966     -787.1806      -17810.457      16.107331    
Loop time of 5.30551 on 12 procs for 50000 steps with 216 atoms

Performance: 1628.497 ns/day, 0.015 hours/ns, 9424.173 timesteps/s
99.5% CPU use with 12 MPI tasks x 1 OpenMP threads

MPI task timing breakdown:
Section |  min time  |  avg time  |  max time  |%varavg| %total
---------------------------------------------------------------
Pair    | 2.6841     | 2.7284     | 2.7684     |   1.6 | 51.43
Bond    | 0.0020756  | 0.0023078  | 0.0026397  |   0.3 |  0.04
Neigh   | 0.11913    | 0.12058    | 0.12206    |   0.3 |  2.27
Comm    | 1.5161     | 1.5591     | 1.6219     |   2.3 | 29.39
Output  | 0.087479   | 0.087555   | 0.088037   |   0.0 |  1.65
Modify  | 0.71055    | 0.73311    | 0.75645    |   2.1 | 13.82
Other   |            | 0.07445    |            |       |  1.40

Nlocal:             18 ave          20 max          16 min
Histogram: 1 0 4 0 0 3 0 2 0 2
Nghost:        319.167 ave         327 max         310 min
Histogram: 1 2 0 1 2 1 0 1 2 2
Neighs:              0 ave           0 max           0 min
Histogram: 12 0 0 0 0 0 0 0 0 0
FullNghs:        731.5 ave         823 max         640 min
Histogram: 1 1 1 2 2 1 1 1 0 2

Total # of neighbors = 8778
Ave neighs/atom = 40.638889
Ave special neighs/atom = 0
Neighbor list builds = 2730
Dangerous builds = 0

unfix           1
unfix           2


# NPT equilibration
# The symmetry of the crystal structure allows us to use an isotropic barostat

fix             1 all nph iso ${pressure} ${pressure} ${pressureDamp}
fix             1 all nph iso 1 ${pressure} ${pressureDamp}
fix             1 all nph iso 1 1 ${pressureDamp}
fix             1 all nph iso 1 1 1
fix             2 all temp/csvr ${temperature2} ${temperature} ${tempDamp} ${seed}
fix             2 all temp/csvr 2500 ${temperature} ${tempDamp} ${seed}
fix             2 all temp/csvr 2500 1720 ${tempDamp} ${seed}
fix             2 all temp/csvr 2500 1720 0.1 ${seed}
fix             2 all temp/csvr 2500 1720 0.1 20000802

run             500000
Per MPI rank memory allocation (min/avg/max) = 6.012 | 6.012 | 6.012 Mbytes
   Step          Temp          PotEng         Press            Lx      
    100000   2352.8966     -787.1806      -17810.457      16.107331    
    100500   2341.3425     -779.66017      26244.377      16.077726    
    101000   2535.1137     -779.76287      12253.896      16.117419    
    101500   2577.3799     -787.89714      30908.288      15.977574    
    102000   2333.4941     -777.4582      -1102.5339      16.110907    
    102500   2611.1669     -788.82623     -4835.4314      16.07706     
    103000   2576.9903     -788.15283     -30274.117      16.13448     
    103500   2845.259      -784.77649     -3469.3143      16.069278    
    104000   2456.4726     -783.65542      21223.553      16.018394    
    104500   2540.653      -783.18004      2532.7468      16.030655    
    105000   2514.7667     -781.52721      15416.712      16.070426    
    105500   2472.4368     -787.31078     -1976.0452      16.078731    
    106000   2525.8236     -775.87365     -7351.4674      16.195175    
    106500   2517.5872     -785.74471     -4057.1494      16.01799     
    107000   2477.5319     -783.56166     -34096.199      16.169628    
    107500   2369.3003     -778.17964      15075.68       16.056159    
    108000   2694.6687     -777.05819     -5312.1383      16.207925    
    108500   2262.1336     -791.17064      20737.511      16.018651    
    109000   2518.2346     -781.59972     -2428.6336      16.131354    
    109500   2535.6744     -791.89502      17740.441      16.016526    
    110000   2675.9586     -784.57781      18825.09       16.048174    
    110500   2297.544      -786.26264     -25834.124      16.162896    
    111000   2407.6966     -776.89865     -24045.816      16.176911    
    111500   2390.6798     -782.29596     -10940.715      16.132319    
    112000   2320.8578     -785.5591      -1014.466       16.108807    
    112500   2548.4341     -786.59575     -7500.5258      16.055117    
    113000   2586.4563     -790.62549     -5555.3277      16.131316    
    113500   2549.5481     -790.80434     -1129.2637      16.049196    
    114000   2356.4463     -785.5336       8906.004       16.030268    
    114500   2702.1379     -785.61062     -6994.1226      16.087076    
    115000   2564.7069     -784.56166      2015.4677      16.084093    
    115500   2444.0676     -780.25453      15038.723      16.059513    
    116000   2589.507      -787.67642      14692.105      16.122667    
    116500   2401.2152     -784.787       -560.44215      16.073066    
    117000   2466.2926     -787.75387      12854.859      16.111066    
    117500   2386.9852     -784.58021     -1751.678       16.070696    
    118000   2229.4109     -787.92293     -1894.6479      16.056837    
    118500   2685.3484     -790.80153     -14565.634      16.136954    
    119000   2578.4252     -778.43394      9559.7417      16.065968    
    119500   2463.2602     -780.41956      3587.163       16.149391    
    120000   2504.4943     -786.44612      5461.4023      16.127449    
    120500   2595.2348     -782.03246      14746.436      16.110283    
    121000   2417.1346     -786.30535     -10836.574      16.153586    
    121500   2495.3403     -786.12179     -2242.973       16.067253    
    122000   2454.7909     -779.62527     -12382.075      16.112987    
    122500   2378.8691     -792.01764     -6860.2596      16.04938     
    123000   2518.0107     -791.68604     -22771.33       16.093345    
    123500   2653.4371     -786.05155      1337.9088      16.083238    
    124000   2493.2921     -782.04265      3778.9693      16.103131    
    124500   2155.918      -788.22409      6366.7414      15.988789    
    125000   2288.5851     -788.78999     -9912.7968      16.072293    
    125500   2585.4943     -786.82026      2614.2031      16.120975    
    126000   2353.926      -788.33711     -17982.018      16.083249    
    126500   2547.9007     -782.23948     -24959.808      16.133054    
    127000   2582.9888     -784.59885     -7039.1297      16.171436    
    127500   2437.0174     -785.89619     -25857.367      16.117585    
    128000   2541.229      -795.7242       9652.8479      16.016765    
    128500   2411.4943     -781.79311      24474.57       16.066108    
    129000   2352.1736     -783.01467     -18417.478      16.141953    
    129500   2481.4817     -781.63666      20655.408      16.105566    
    130000   2305.6403     -781.10903      13726.672      16.081372    
    130500   2353.7224     -781.14245      7767.0819      16.051699    
    131000   2535.3426     -782.76867      1452.6188      16.183707    
    131500   2536.84       -788.64956      2802.8009      16.120207    
    132000   2307.6337     -780.94198     -11126.464      16.128771    
    132500   2536.8042     -783.36039      11570.625      16.092099    
    133000   2489.5753     -789.69591      2968.0099      16.147805    
    133500   2629.9727     -777.61411     -19055.378      16.085556    
    134000   2527.4398     -791.3951       19907.198      16.035776    
    134500   2122.2754     -788.05112      4129.2862      16.05673     
    135000   2452.6189     -787.23175      12123.962      16.03036     
    135500   2438.0739     -782.66634      11982.991      16.054225    
    136000   2351.0921     -783.88988      14529.267      16.093525    
    136500   2535.6018     -795.59913      40.604677      16.069551    
    137000   2436.6096     -790.20572     -14835.437      16.167803    
    137500   2372.6012     -794.38478     -11678.455      16.068474    
    138000   2595.0357     -789.61151      7079.252       16.135458    
    138500   2511.3273     -789.38419      1407.0914      16.107596    
    139000   2444.9877     -783.61327     -17714.138      16.146952    
    139500   2359.4529     -787.97195     -14903.36       16.106214    
    140000   2038.0641     -786.84719     -22692.182      16.10064     
    140500   2474.4029     -787.40323     -9927.5637      16.114329    
    141000   2768.0555     -784.09383     -14743.857      16.207027    
    141500   2378.6609     -782.66215     -26324.621      16.174045    
    142000   2360.2298     -783.31007      5599.9618      16.12208     
    142500   2505.5842     -781.3919       12249.99       16.073504    
    143000   2444.4665     -785.37079     -2007.7178      16.044767    
    143500   2304.4092     -782.70082     -12225.098      16.143065    
    144000   2272.9268     -784.88951     -3126.6046      16.088006    
    144500   2226.7368     -795.22945     -8445.7376      16.06021     
    145000   2510.923      -789.89413     -151.5237       16.011944    
    145500   2411.5844     -787.49025      10643.856      16.073104    
    146000   2209.1773     -788.87123     -2672.3557      16.056906    
    146500   2259.298      -785.26114     -31052.463      16.115179    
    147000   2491.8787     -781.04992      1550.1061      16.048943    
    147500   2480.4297     -784.89853      4243.6721      16.007165    
    148000   2484.4665     -787.92351      3354.1414      16.050737    
    148500   2449.7287     -784.15219     -21435.179      16.167008    
    149000   2241.6441     -783.25796     -18129.612      16.113594    
    149500   2477.7171     -786.98548      14281.399      16.061562    
    150000   2259.7836     -791.34802      6386.896       16.017223    
    150500   2425.1662     -788.69181      12285.032      16.039874    
    151000   2321.1797     -789.60219      14492.616      16.102532    
    151500   2427.5881     -787.34648      2955.1784      16.086709    
    152000   2281.4883     -782.47419      4042.271       16.093798    
    152500   2247.5698     -788.24077     -28707.179      16.098075    
    153000   2378.813      -781.01939     -9210.3552      16.141405    
    153500   2420.8731     -780.65833     -22417.994      16.137212    
    154000   2447.5222     -787.98882     -10701.414      16.073845    
    154500   2356.6971     -784.14685      5702.8979      16.112248    
    155000   2205.9027     -790.16857     -1766.5797      16.101773    
    155500   2552.1665     -783.54676      13666.37       16.049278    
    156000   2152.8457     -793.67898     -10119.513      16.129738    
    156500   2442.8211     -794.12524      10942.88       16.000043    
    157000   2528.2733     -785.52445     -5880.0519      16.134164    
    157500   2348.2998     -778.76294      7107.6486      16.076702    
    158000   2385.2066     -788.29457      16677.475      16.022796    
    158500   2261.4335     -787.23076     -15044.024      16.132096    
    159000   2525.6249     -788.14985     -4793.3702      16.014087    
    159500   2409.9098     -791.28788     -6968.9236      16.08307     
    160000   2182.7238     -786.47596     -15259.762      16.102949    
    160500   2717.9317     -783.16505     -2209.6151      16.03478     
    161000   2451.1666     -786.72694      9557.6582      16.063643    
    161500   2623.7969     -785.23621      17002.321      16.110909    
    162000   2420.4193     -790.68227     -943.28716      16.142582    
    162500   2152.0075     -778.53342      5548.1116      16.098403    
    163000   2295.8184     -789.2531      -10019.425      16.045237    
    163500   2171.6393     -790.32078      5239.8022      16.073077    
    164000   2312.2421     -784.2692      -6291.9325      16.105948    
    164500   2347.201      -787.23999     -7786.007       16.092753    
    165000   2548.4904     -790.29022      10428.643      16.098577    
    165500   2413.2872     -788.83288     -13367.777      16.08346     
    166000   2637.6537     -786.6096       12818.026      16.079544    
    166500   2557.349      -794.19403      24688.749      15.96052     
    167000   2430.2498     -791.32035     -10272.434      16.070368    
    167500   2610.5099     -783.29021     -6909.1961      16.147048    
    168000   2342.343      -786.53193     -20472.757      16.250667    
    168500   2556.5727     -788.57093     -2455.1444      16.062401    
    169000   2424.1556     -785.7968       6778.1274      16.039002    
    169500   2556.1527     -786.31517     -2751.4585      16.078669    
    170000   2338.5442     -788.59214      3684.496       16.071276    
    170500   2495.902      -787.34325     -9773.4306      16.092434    
    171000   2253.8622     -784.55306      9526.2652      16.063342    
    171500   2522.214      -781.69474     -6117.8483      16.134846    
    172000   2362.7617     -794.09603      7835.424       16.062828    
    172500   2385.7869     -773.89044     -6370.8418      16.143345    
    173000   2335.574      -783.33146     -6705.5254      16.119242    
    173500   2394.7597     -791.42141     -29815.213      16.166834    
    174000   2381.9112     -784.23781      32461.64       16.02315     
    174500   2255.7063     -794.32107     -12852.389      16.071384    
    175000   2389.9292     -788.68257      4634.622       16.061698    
    175500   2261.7576     -777.37269      38810.758      16.045493    
    176000   2429.5982     -792.8337       641.85009      16.076398    
    176500   2281.2431     -781.38402      8805.9181      16.068928    
    177000   2382.5829     -783.0735      -19510.888      16.179886    
    177500   2371.269      -789.11634      1798.4774      16.145592    
    178000   2360.6907     -783.63448     -764.28093      16.168668    
    178500   2414.1912     -790.04331      15095.314      16.102338    
    179000   2071.1362     -785.24492      17919.736      16.030257    
    179500   2480.1999     -790.11178     -11144.11       16.091938    
    180000   2569.7089     -792.05562     -4255.7537      16.092042    
    180500   2494.6851     -793.98519      5993.3301      16.089862    
    181000   2475.3938     -786.44683     -956.56249      16.059168    
    181500   2353.867      -791.11147      11169.851      16.059228    
    182000   2412.2075     -783.72374      1438.8039      16.171127    
    182500   2332.4241     -782.95233     -9206.7552      16.070239    
    183000   2393.6654     -785.09553     -13595.29       16.118337    
    183500   2340.1251     -789.1672      -22087.862      16.141872    
    184000   2202.1959     -786.4292       20994.955      16.071087    
    184500   2277.8963     -790.99173      18334.043      16.020827    
    185000   2622.3138     -788.48964     -17686.243      16.089109    
    185500   2522.3629     -788.3912       1419.941       16.052146    
    186000   2270.054      -796.58686      10061.382      16.00771     
    186500   2467.7596     -789.53717     -5636.6793      16.070743    
    187000   2338.6526     -791.59662     -5088.4875      16.038718    
    187500   2359.5025     -790.6836      -625.11397      16.018312    
    188000   2166.9804     -789.63103     -20504.941      16.131386    
    188500   2420.212      -784.6094       3006.9559      16.155486    
    189000   2080.5649     -783.61974     -2816.1764      16.167208    
    189500   2574.3905     -787.44658     -2439.4562      15.969728    
    190000   2232.85       -789.65213     -980.09527      16.149464    
    190500   2285.4823     -791.19962     -8093.4072      16.150511    
    191000   2423.5718     -795.17241     -8350.9901      16.000435    
    191500   2628.4145     -790.22086     -11172.681      16.224361    
    192000   2297.7687     -789.91897     -22229.695      16.092748    
    192500   2315.0646     -787.72376      6752.8954      16.064071    
    193000   2242.7725     -791.37762     -7354.6118      16.055139    
    193500   2506.1441     -790.69593      26426.459      16.043017    
    194000   2353.2539     -786.26404     -1030.0278      16.066698    
    194500   2432.0469     -784.06634      9335.743       16.079728    
    195000   2347.8147     -781.83265     -1627.774       16.119934    
    195500   2203.6447     -781.70763     -5595.1622      16.099178    
    196000   2494.2125     -787.60484      5988.496       16.09        
    196500   2270.6699     -781.78098      1660.7301      16.075228    
    197000   2475.8589     -792.33374     -5577.4389      16.107943    
    197500   2463.9077     -790.36084      4112.6379      16.026144    
    198000   2328.7253     -786.75492     -16994.975      16.167177    
    198500   2382.9577     -795.64584      1627.9138      16.039257    
    199000   2356.5257     -788.21322      3038.238       16.001681    
    199500   2178.9682     -794.49532      8168.3647      16.034788    
    200000   2344.1706     -790.47482      2138.7793      16.096785    
    200500   2129.3124     -790.7556      -982.20856      16.057165    
    201000   2449.1166     -792.08176     -3867.2268      16.092328    
    201500   2155.6067     -789.56593     -26933.592      16.150952    
    202000   2114.7326     -795.08247      1060.0955      16.061961    
    202500   2332.468      -788.35025     -11447.303      16.162532    
    203000   2296.9379     -786.63395      24953.665      16.006404    
    203500   2376.5455     -786.60905      1902.2097      16.105411    
    204000   2495.5911     -794.40308      14427.81       16.016379    
    204500   2253.8507     -788.571       -17535.15       16.121949    
    205000   2525.927      -796.41198     -8819.7724      16.097242    
    205500   2281.5893     -785.78584      2220.0851      16.136717    
    206000   2381.7184     -787.97905      22061.888      16.09918     
    206500   2379.8909     -795.36051      16844.25       16.027152    
    207000   2311.6119     -794.2993       5550.7128      16.081048    
    207500   2271.3433     -789.17434     -7040.4658      16.15964     
    208000   2184.2646     -788.944        7979.8821      16.0489      
    208500   2328.4216     -791.39279      25619.232      16.038582    
    209000   2534.3844     -794.94511      30.349206      16.091831    
    209500   2389.1016     -792.2122      -453.01916      16.083784    
    210000   2196.2193     -785.85542      5501.9602      16.065641    
    210500   2565.7972     -790.27814     -8495.2219      16.110442    
    211000   2331.9219     -789.37106     -33230.312      16.090221    
    211500   2229.7366     -785.30603     -3249.5214      16.112851    
    212000   2322.9041     -791.81465     -12843.242      16.121105    
    212500   2150.8773     -784.02376     -60.455122      16.173948    
    213000   2308.2927     -792.99906      5017.2605      16.073759    
    213500   2380.9619     -789.78634     -19351.879      16.055943    
    214000   2141.5585     -788.83408     -1938.8779      16.067879    
    214500   2447.9383     -792.63621     -1692.9405      16.060771    
    215000   2259.5981     -792.02931     -14446.905      16.071236    
    215500   2311.4822     -789.20385      12035.809      16.133691    
    216000   2571.8021     -787.55584     -3246.6244      16.088123    
    216500   2428.7979     -785.68097     -4302.2831      16.117185    
    217000   2120.119      -795.8571      -20712.675      16.139476    
    217500   2348.5065     -788.65564     -21116.095      16.094287    
    218000   2665.8514     -787.44059     -1928.7766      16.122567    
    218500   2355.7553     -788.54665     -8529.5246      16.114437    
    219000   2222.2161     -792.11466      24160.582      15.990456    
    219500   2336.8931     -784.55541      10287.01       16.09111     
    220000   2370.4021     -791.03644     -23223.329      16.14788     
    220500   2324.2766     -792.94007     -10088.367      16.101842    
    221000   2283.1016     -789.99768      6761.9572      16.034264    
    221500   2192.4322     -790.24982      553.70466      16.060372    
    222000   2275.1005     -791.71817      15392.916      16.05289     
    222500   2456.5268     -795.23803      12434.102      16.024747    
    223000   2284.897      -790.43434      11374.609      16.002435    
    223500   2217.4728     -794.56957      4859.5577      16.126787    
    224000   2377.3469     -789.69383     -14777.807      16.105649    
    224500   1904.2365     -787.09005      3792.0511      16.074872    
    225000   2542.4966     -784.68422     -23556.17       16.160114    
    225500   2266.2629     -795.04249      13305.471      16.027985    
    226000   2298.2572     -794.18631     -1885.0033      16.034784    
    226500   2574.3845     -787.60133     -11322.39       16.121705    
    227000   2281.0442     -787.40627     -17188.058      16.163846    
    227500   2418.2624     -791.03766     -9129.4689      16.133988    
    228000   2306.8544     -794.4676      -10798.779      16.07518     
    228500   2150.4431     -788.71076      20883.889      15.939758    
    229000   2213.7814     -793.9873       2669.5685      16.052133    
    229500   2396.6328     -792.29718      4471.9768      16.100881    
    230000   2548.7478     -788.27348      10225.596      16.107847    
    230500   2197.021      -787.95965     -1251.7831      16.100346    
    231000   2291.367      -790.86765      12956.872      15.99793     
    231500   2388.2143     -787.40555      8578.5882      16.105552    
    232000   2270.8467     -788.00114      6326.2954      16.065524    
    232500   2410.8713     -793.18076      3974.6867      16.058915    
    233000   2358.4788     -790.9121      -10529.052      16.074068    
    233500   2302.9932     -794.93313      4146.6519      16.00095     
    234000   2256.0241     -782.75068     -1175.8805      16.109602    
    234500   2431.4593     -800.4939       22086.698      16.031913    
    235000   2365.7305     -792.0218       1961.7654      16.046538    
    235500   2437.7128     -794.42449     -301.38224      16.04473     
    236000   2197.0645     -789.66417      6230.1148      16.079849    
    236500   2571.535      -793.81555      10436.898      16.024272    
    237000   2247.2449     -788.2814      -21265.778      16.144698    
    237500   2332.0069     -790.17143      9710.9815      16.016557    
    238000   2371.5299     -799.48849      14537.058      16.014115    
    238500   2253.6636     -789.02643     -8379.6578      16.034838    
    239000   2273.5259     -784.55276      265.93816      16.09831     
    239500   2176.3837     -793.01395      6291.8515      16.089974    
    240000   2269.4918     -793.98581      7719.454       16.040372    
    240500   2195.6167     -795.64354      5939.4774      16.026755    
    241000   2183.0737     -794.18138     -7873.1224      16.071677    
    241500   2262.4002     -793.8908      -4136.9066      16.009268    
    242000   2126.7574     -790.8999      -9905.8608      16.102639    
    242500   2275.4206     -792.95227      7993.1781      16.127172    
    243000   2176.6553     -797.5407       14947.562      16.000641    
    243500   2056.0619     -790.37524      1922.0146      15.989505    
    244000   2185.378      -796.64282      3770.6028      16.130549    
    244500   2329.4621     -792.3334      -5368.2146      16.035209    
    245000   2194.786      -793.06368     -29068.796      16.19164     
    245500   2327.3401     -792.74791      1176.207       16.091267    
    246000   2308.2828     -787.72379      11203.478      16.017416    
    246500   2468.4827     -794.86114      10684.723      16.020324    
    247000   2329.6083     -798.60532      25269.11       15.94797     
    247500   2193.0971     -795.0382       7044.3883      15.980548    
    248000   1917.202      -783.59632     -6182.9044      16.109373    
    248500   2127.4372     -786.74181     -18953.166      16.131543    
    249000   2328.5649     -792.82882      17080.216      16.027601    
    249500   2102.9466     -782.51341     -12394.437      16.045563    
    250000   2171.9038     -789.87158      15496.987      15.999003    
    250500   2299.7938     -798.64605     -3317.6927      16.038791    
    251000   2353.394      -788.07621      1654.7261      15.99463     
    251500   2292.0076     -793.52755     -21399.851      16.050525    
    252000   2158.9082     -795.91806      4834.3241      16.082651    
    252500   2447.9439     -792.82694     -2993.0621      16.042784    
    253000   2180.7346     -797.97587      24810.599      15.970353    
    253500   2421.5045     -789.9095      -12871.289      16.192397    
    254000   2182.5981     -787.95352      14284.407      16.07801     
    254500   2446.6348     -793.03897      24780.234      15.975457    
    255000   2341.5721     -790.75426     -12002.485      16.113674    
    255500   2330.7755     -795.24968      503.38737      16.101553    
    256000   2311.7805     -796.50342     -107.96618      16.061321    
    256500   2231.019      -792.87025      18993.903      16.050379    
    257000   2185.6567     -792.86949     -9720.6326      16.059721    
    257500   2268.6964     -800.00965      1876.9156      16.017093    
    258000   2484.3205     -798.70976      30993.963      15.991267    
    258500   2136.7588     -794.24134     -20584.513      16.035959    
    259000   2263.0199     -792.71707     -17826.316      16.075593    
    259500   2131.476      -791.55073      2835.4177      16.055421    
    260000   2149.1789     -792.64604      14385.659      16.026081    
    260500   2399.6907     -792.18582      5300.2148      16.051517    
    261000   2140.433      -791.18065      8633.6674      16.049451    
    261500   2174.4635     -791.75954     -7316.6858      16.075593    
    262000   2290.5164     -790.68159      1772.2969      15.99047     
    262500   2066.3247     -795.34431     -17953.684      16.08564     
    263000   2171.0427     -797.55526      2675.6512      16.028334    
    263500   2498.2249     -792.17966      18782.721      15.992136    
    264000   2425.6105     -801.15952      26498.249      15.973398    
    264500   2323.7353     -796.89361      7334.0191      15.99165     
    265000   2326.9828     -796.80643     -25743.963      16.111306    
    265500   2140.5116     -794.384        328.43054      16.048673    
    266000   2177.6832     -791.14686      16691.823      16.047214    
    266500   2107.7011     -792.94751     -10769.534      16.060972    
    267000   2122.4488     -787.51356      9537.6761      16.0406      
    267500   2015.0986     -789.12075     -9887.7753      16.146317    
    268000   2318.3065     -798.12065     -17180.794      16.057279    
    268500   2184.0361     -788.44382      9884.8352      16.038401    
    269000   2349.6019     -790.53439     -1461.6289      16.100497    
    269500   2237.8028     -798.14442     -9133.464       15.979266    
    270000   2151.8214     -792.04376      11760.027      15.991577    
    270500   2387.7854     -794.96789      10871.768      16.077935    
    271000   2404.6553     -803.42272      10291.749      16.00431     
    271500   2256.6155     -800.84716      8892.1486      16.025766    
    272000   2188.0423     -797.70917      15830.215      15.961909    
    272500   2159.8826     -787.61551      1826.6259      16.07467     
    273000   2130.8456     -787.47305      11265.521      16.024419    
    273500   2189.7373     -795.34244     -2250.7102      16.059708    
    274000   1999.0292     -791.16133     -3130.3451      16.08002     
    274500   2200.8613     -795.29478     -13566.597      16.039106    
    275000   2281.4618     -795.72556     -11612.49       16.040386    
    275500   2056.0226     -791.4576       6566.6294      16.055468    
    276000   2000.7683     -799.86058     -7020.9761      16.020292    
    276500   2211.9485     -796.37917      7360.3297      15.971214    
    277000   2281.1984     -795.22998      7458.7218      16.036349    
    277500   2176.2453     -797.91695      2676.3498      15.985662    
    278000   2283.2969     -792.59925     -16569.583      16.084405    
    278500   2162.0407     -791.24421     -1783.1928      16.001965    
    279000   2036.624      -791.64258     -24979.058      16.105032    
    279500   2103.3207     -796.21235     -1975.4384      16.056828    
    280000   2353.7423     -796.00303      13865.607      16.004005    
    280500   1935.7739     -796.89764     -6035.6513      15.991968    
    281000   2062.8745     -800.84255      8464.2442      15.98974     
    281500   2137.3064     -797.35477      2795.2485      15.983766    
    282000   2333.9399     -786.03645      45157.974      15.986081    
    282500   2145.6938     -795.36439     -7262.5624      16.071471    
    283000   2169.6843     -785.95599     -9316.0495      16.112494    
    283500   2294.1533     -790.82619     -3049.7286      16.087561    
    284000   2230.6646     -800.38272     -3869.1388      16.011457    
    284500   2152.9807     -790.012        19971.407      16.044153    
    285000   2375.4389     -791.12505      4236.0848      16.008805    
    285500   2141.6013     -794.79764      6641.5806      16.053487    
    286000   2198.7824     -794.98649      327.41722      15.962798    
    286500   2067.1197     -792.66693      6456.1442      16.030975    
    287000   2453.1346     -799.61101      17281.384      15.982341    
    287500   2161.1067     -796.34355      14361.236      16.010884    
    288000   2137.5536     -794.84469     -5622.7332      16.029924    
    288500   2200.3396     -789.65402     -9492.3288      16.121751    
    289000   2221.4661     -801.8231       20868.823      16.010676    
    289500   2032.1883     -793.76374     -19421.583      16.084342    
    290000   1916.5974     -795.84537     -14053.714      16.117306    
    290500   2199.5758     -786.16374      901.35573      16.043503    
    291000   2187.0512     -793.12266     -12164.556      16.1246      
    291500   2238.1309     -794.70716     -19920.984      16.092208    
    292000   2257.5254     -798.55356      17018.011      15.998685    
    292500   2232.4872     -790.33694     -6519.5827      16.067661    
    293000   2283.7522     -797.048        7853.7322      16.052475    
    293500   2260.5572     -798.33417      7027.8249      16.01521     
    294000   2313.6261     -806.30281      1503.4884      15.968341    
    294500   2362.442      -795.54072     -72.441017      15.98093     
    295000   2258.0469     -790.57606      8235.9043      16.0525      
    295500   2235.9779     -791.09106     -6564.8086      16.092386    
    296000   2134.7744     -793.9987       11627.496      16.035825    
    296500   2320.818      -792.46479      4652.6573      16.046696    
    297000   2292.2424     -795.84315      11885.699      15.975078    
    297500   2381.38       -797.03178     -5982.9495      16.020479    
    298000   2336.4367     -804.32834      11320.45       16.003625    
    298500   2305.2107     -792.55692     -1680.4629      15.994199    
    299000   2171.4005     -799.9439       9264.7055      16.009053    
    299500   2403.2624     -799.67632     -9811.1307      16.063678    
    300000   2047.1503     -794.55168     -16430.054      16.075298    
    300500   2054.9566     -794.81363     -17215.915      16.102178    
    301000   1950.5807     -794.34692      1979.9612      16.057635    
    301500   2207.7691     -793.03216     -6883.4342      16.027044    
    302000   2230.0162     -791.75796      6756.1767      16.09652     
    302500   2018.851      -795.89644      14650.313      15.995893    
    303000   2112.6399     -795.74947      2218.1202      16.064551    
    303500   2252.6506     -800.77148      11534.295      15.962628    
    304000   2247.4291     -797.26779      3064.795       16.038783    
    304500   2296.002      -794.15548     -12096.966      16.091411    
    305000   2195.98       -797.11474      836.7175       16.013263    
    305500   2142.5479     -799.44103      33487.946      15.955084    
    306000   2283.1709     -799.51224      2751.1258      15.998092    
    306500   2226.6285     -794.88937     -3014.6005      16.034909    
    307000   2350.9033     -793.54443      3338.0536      16.09623     
    307500   2258.9717     -796.17448     -18802.358      16.097772    
    308000   2361.0833     -787.60817      6250.6068      16.027987    
    308500   2165.6294     -798.67267     -10714.614      16.007963    
    309000   2258.1234     -798.18486      2061.1135      16.045187    
    309500   2028.1623     -795.4874       18853.406      16.015247    
    310000   2320.9648     -791.12812      27209.906      15.987717    
    310500   2219.8404     -800.52445      13508.89       15.983724    
    311000   2057.593      -796.01477      11640.373      15.941792    
    311500   1974.0968     -793.06877      13969.272      15.995043    
    312000   2234.3395     -794.22899      16768.591      16.026668    
    312500   2153.5296     -799.05877     -2834.415       16.082382    
    313000   2266.7056     -797.43109     -17976.248      16.043004    
    313500   2299.8852     -798.80384      12013.012      15.980437    
    314000   2037.521      -798.96519     -4392.883       16.060241    
    314500   2272.5851     -800.16         13367.848      15.990582    
    315000   2166.6592     -795.9253      -8225.004       16.031691    
    315500   2142.9637     -804.548       -1253.8658      16.037607    
    316000   2047.845      -797.05372      20818.293      16.022701    
    316500   2051.3556     -799.92495     -31198.476      16.048792    
    317000   2171.436      -791.16696      5752.9847      15.989446    
    317500   2349.4476     -795.41243     -19254.572      16.080081    
    318000   2061.5099     -785.53274     -5817.6984      16.135462    
    318500   2089.2106     -799.77974      5392.689       16.001639    
    319000   2143.0965     -799.76916      34303.929      15.945483    
    319500   2131.9842     -799.80615     -8740.7428      16.033504    
    320000   2291.7093     -797.67673     -9471.4227      16.035121    
    320500   2243.7704     -797.37484      12548.091      16.041266    
    321000   2335.2372     -793.6958       18401.384      15.966537    
    321500   2074.8656     -795.79629     -18678.949      16.032319    
    322000   1979.5487     -791.61353     -16626.495      16.111428    
    322500   2393.6308     -791.55585      20035.775      16.034863    
    323000   2015.517      -800.11991      10810.835      15.983161    
    323500   2353.6058     -793.33087      24888.935      15.973099    
    324000   2322.7932     -793.9795       8147.6982      16.042863    
    324500   2249.9933     -790.41656     -7288.6604      16.10995     
    325000   2210.6037     -795.84089      11536.112      16.06445     
    325500   2001.5709     -802.63098      7095.642       16.011783    
    326000   2279.4522     -794.1524      -17778.424      16.056487    
    326500   2235.62       -798.46135      8130.5334      16.083197    
    327000   2198.6075     -797.71242     -2933.3005      16.069146    
    327500   2161.7601     -796.81526     -5901.0694      16.068439    
    328000   1986.4119     -792.9127      -10628.474      16.163516    
    328500   2323.8238     -795.90508      7094.1747      16.018219    
    329000   2361.0971     -797.07958     -13698.493      16.018881    
    329500   2001.0543     -798.96552      684.98899      16.076564    
    330000   2027.7797     -803.52251      1388.8906      16.066034    
    330500   2226.1178     -793.92287     -28544.11       16.070009    
    331000   2108.8661     -793.31542      32068.463      15.953269    
    331500   2183.7814     -794.55194      21383.721      16.063973    
    332000   2120.7535     -801.68726     -2737.4348      16.025136    
    332500   2289.7079     -792.76705     -7885.8524      16.056402    
    333000   1995.9976     -799.52701      29054.795      15.925061    
    333500   2237.7443     -797.80897     -22764.456      16.08356     
    334000   2191.4151     -792.59074     -17539.172      16.093218    
    334500   2276.1031     -791.44385      25659.036      16.051583    
    335000   2097.3745     -798.77673     -8830.3942      16.035336    
    335500   2276.7871     -802.0521      -5814.1848      16.042376    
    336000   2123.2338     -796.3955       1454.8798      16.061188    
    336500   2069.8982     -791.10776      28397.364      16.02674     
    337000   2162.13       -790.56221     -15769.725      16.09336     
    337500   2124.7895     -797.76189      3416.4177      15.976506    
    338000   1999.6688     -790.60429      27861.955      16.00328     
    338500   2042.191      -801.22914     -1447.1579      15.959989    
    339000   2089.3229     -803.49761     -4256.5797      16.054197    
    339500   2085.0678     -793.88563     -3540.8912      16.09305     
    340000   2071.0678     -799.44138     -23559.629      16.110444    
    340500   2248.1963     -800.15484     -12345.596      16.019396    
    341000   2172.965      -792.23491     -2388.07        16.049293    
    341500   2392.623      -800.18798     -9710.4571      16.012384    
    342000   2029.3245     -799.93377     -11412.94       16.08937     
    342500   2263.6952     -797.28969     -2112.8513      16.018248    
    343000   2197.2422     -798.26143     -16339.703      16.042903    
    343500   2072.6514     -794.74626      7041.142       16.09385     
    344000   2223.3422     -794.09711     -23567.773      16.064754    
    344500   2038.5499     -806.71397     -23547.669      16.060846    
    345000   2139.5401     -805.10306     -3425.9995      16.015863    
    345500   2039.9368     -798.93092      4973.9021      16.060542    
    346000   2217.3992     -802.46877      1597.4581      15.960668    
    346500   2134.0642     -799.12143      10436.228      16.037747    
    347000   2283.1108     -801.3912       4389.7835      16.019947    
    347500   2093.8408     -797.23779      10315.624      16.025388    
    348000   2090.7346     -787.14768     -21525.286      16.074906    
    348500   2307.4037     -793.50984     -13660.86       16.064597    
    349000   2218.2195     -794.53704     -9340.3998      16.103366    
    349500   2282.4976     -803.39816      7256.1203      16.037731    
    350000   2096.4955     -790.46341      13873.091      15.997838    
    350500   2132.3526     -801.89163     -3927.1254      16.019424    
    351000   2213.0343     -799.14715     -2041.1513      15.9988      
    351500   1988.9271     -800.52117      6516.5078      16.023271    
    352000   1946.3899     -794.31412      19731.921      16.019772    
    352500   2112.3601     -795.11053     -10343.497      16.056983    
    353000   2136.7385     -797.78031     -13473.57       16.028805    
    353500   2204.2431     -796.75668      9709.3368      16.033188    
    354000   2113.5699     -805.36397     -19780.959      16.065581    
    354500   2164.5034     -805.28381      10849.919      15.991643    
    355000   2145.5755     -792.87419      4223.6317      16.00092     
    355500   2190.086      -790.56899      12034.034      16.004598    
    356000   2061.1217     -799.12217      27643.736      15.965737    
    356500   2096.3152     -782.17227      4739.1956      16.130628    
    357000   2279.3576     -792.62543     -17146.336      16.147156    
    357500   2253.8389     -802.23297     -5406.1745      16.037127    
    358000   2213.0915     -797.65679      11774.485      15.962813    
    358500   2016.1804     -794.96728      10780.416      15.974511    
    359000   2025.0873     -802.47154     -8747.8963      16.030077    
    359500   2296.3162     -803.89764      23930.918      15.974039    
    360000   2065.0137     -798.0665       23579.895      16.007971    
    360500   1924.2949     -804.18777      3275.1138      16.063784    
    361000   2168.8148     -804.67988      6159.5048      15.9613      
    361500   1933.9172     -798.9551       4110.293       15.992553    
    362000   2085.575      -800.81624      10411.6        16.034312    
    362500   1990.8916     -798.59308      5033.5392      16.008041    
    363000   1935.8638     -805.61785      11122.588      15.990015    
    363500   2116.895      -803.93471     -2673.9679      16.026302    
    364000   2051.0084     -797.17114     -35990.841      16.115177    
    364500   1901.3232     -795.40066     -9856.9082      16.082799    
    365000   2108.9207     -798.06651     -22351.215      16.095405    
    365500   1879.6823     -800.1037      -4745.2853      16.035613    
    366000   2178.9609     -795.56139      9130.545       16.002098    
    366500   2033.0276     -799.53458     -5373.7315      16.074176    
    367000   2198.0058     -802.76104     -14625.677      16.036137    
    367500   2118.1664     -802.25933     -200.82094      16.016405    
    368000   2199.5564     -802.4294      -41.258383      16.076669    
    368500   1837.6419     -793.0177      -8346.1273      16.06826     
    369000   2223.6484     -803.13203      8002.5631      16.065022    
    369500   2218.859      -802.94967     -6528.2204      16.036865    
    370000   1882.4695     -793.13584      7252.249       16.063959    
    370500   2246.823      -796.67839      8024.8683      16.012615    
    371000   2032.8002     -804.37582      12839.19       16.028266    
    371500   2364.2929     -806.17471      22239.483      15.964907    
    372000   2233.2099     -799.7685      -13228.816      16.060924    
    372500   2125.1545     -795.88103      1652.7688      16.04173     
    373000   2347.6341     -800.21076      9744.2144      15.973303    
    373500   2081.7332     -797.2863       12490.513      16.061114    
    374000   1855.2706     -791.80408      8361.3393      16.069606    
    374500   2117.1191     -794.55912      3463.3549      16.063945    
    375000   2278.7317     -797.75631     -793.15477      16.028447    
    375500   2137.0602     -802.6063       5520.8302      16.000889    
    376000   1998.3955     -801.76493      34324.826      15.956182    
    376500   2141.1874     -797.69843     -3465.3271      15.982493    
    377000   2026.3536     -795.05531     -27055.838      16.063037    
    377500   2095.8132     -800.76845      1528.582       15.998365    
    378000   2122.5201     -795.93761     -20671.865      16.109206    
    378500   2076.4783     -800.95318      24469.202      15.955526    
    379000   1799.3548     -799.92849     -8512.1275      16.085052    
    379500   2144.1069     -802.19143      9195.6423      16.004798    
    380000   2309.9744     -802.55707      10094.558      15.934714    
    380500   2050.9238     -800.48898     -19149.772      16.128594    
    381000   2035.4292     -800.30354      2845.3394      16.040668    
    381500   2085.1213     -807.18436     -7817.9411      16.036414    
    382000   2112.0181     -793.24796     -21126.047      16.070031    
    382500   2130.3875     -803.47284     -6218.997       16.033045    
    383000   1949.5445     -802.84994      14536.616      15.972843    
    383500   2083.147      -803.47707      20320.588      15.985167    
    384000   2094.2652     -799.86239      37776.017      15.937456    
    384500   2139.0417     -801.27039     -5380.8446      16.060146    
    385000   2058.3088     -805.92061     -5460.7755      16.007308    
    385500   1965.1376     -795.74312     -11498.244      15.979652    
    386000   2182.7968     -807.14249      3573.5221      16.048223    
    386500   2267.2439     -803.62374     -7180.7281      16.054345    
    387000   1841.7728     -803.59203     -21897.372      16.046886    
    387500   2320.2273     -789.56574      9324.5349      16.009603    
    388000   2056.46       -799.32962     -12615.379      16.08616     
    388500   2102.8544     -797.44891     -3263.6349      16.070781    
    389000   2207.8932     -803.74835      4931.1215      15.965276    
    389500   2075.096      -800.67517      32624.301      15.938373    
    390000   2149.1592     -800.16333      9557.1537      16.024531    
    390500   1928.9709     -803.66657      13813.578      16.029095    
    391000   1927.4543     -800.64115     -20781.295      16.123744    
    391500   2196.9489     -798.27394     -15104.923      16.062774    
    392000   2064.0613     -796.26031     -1764.0902      16.031359    
    392500   2057.2697     -795.54759      920.52762      16.048316    
    393000   2040.1195     -800.00192      29562.659      15.983364    
    393500   2180.4501     -795.0713      -20602.158      16.057345    
    394000   2075.5829     -808.44495     -2133.1978      16.007646    
    394500   2036.0101     -802.2572      -25790.758      16.030717    
    395000   1881.5231     -803.06382      617.57894      15.983065    
    395500   1819.4029     -805.50143      7787.4296      15.941407    
    396000   1920.1856     -804.29025      12316.54       15.95903     
    396500   1998.3834     -802.48123     -2086.5478      16.043976    
    397000   2067.515      -806.86152      2515.9322      16.029665    
    397500   1919.6084     -800.0466      -6051.8151      15.97151     
    398000   2085.2689     -799.00137     -5572.4429      16.002955    
    398500   1778.4177     -796.29467     -321.18952      16.052011    
    399000   2280.6159     -801.48347      15658.472      15.91284     
    399500   2040.3847     -803.76733     -10424.536      16.074578    
    400000   1899.8434     -798.38125      7791.9818      15.945531    
    400500   2213.039      -803.73089      18257.453      16.025952    
    401000   2048.7914     -800.36056     -15198.29       16.019224    
    401500   1980.4944     -802.25865     -14342.512      16.061834    
    402000   2183.5823     -799.30361      15350.352      15.994406    
    402500   1837.1082     -797.87494     -3165.8589      16.083079    
    403000   1998.6544     -800.48296     -597.23167      16.082249    
    403500   2004.4624     -802.36204     -6608.9108      16.045644    
    404000   1882.6799     -804.05047      2957.057       16.010351    
    404500   1980.4622     -804.12561      5096.7795      16.012394    
    405000   2025.6066     -805.11209     -7853.8121      16.014612    
    405500   2167.6548     -802.50598      7277.579       15.99845     
    406000   1909.3818     -802.94726      10597.398      16.038675    
    406500   1870.9408     -794.43136      6553.7758      16.039514    
    407000   2061.8451     -806.71094     -3181.6942      16.002798    
    407500   1998.8375     -801.78216     -15865.962      16.007473    
    408000   1963.9182     -801.17349     -15373.822      16.053819    
    408500   2012.4333     -798.13462     -24101.093      16.100573    
    409000   2048.1007     -799.00195     -8087.642       16.09677     
    409500   2312.3465     -798.14947     -8964.9935      16.045266    
    410000   2072.1625     -801.79412     -4154.8332      15.944862    
    410500   2003.8661     -801.90564      29366.762      15.911686    
    411000   2045.5044     -804.70965     -6809.8534      16.092471    
    411500   1902.5415     -804.83492     -1740.7801      16.02553     
    412000   2133.6729     -796.63452      10811.332      16.08466     
    412500   2023.1019     -804.13387      18741.447      15.978804    
    413000   2009.3385     -805.97508     -21172.256      16.07632     
    413500   2101.5771     -800.64143     -5426.5696      16.111798    
    414000   1942.1866     -800.47144     -24380.991      16.045013    
    414500   2062.5969     -808.87339      3398.0835      15.968751    
    415000   2123.2977     -796.72778     -10728.67       16.106015    
    415500   2187.5534     -803.35166      9285.2277      16.063417    
    416000   1980.4314     -797.6384       8959.896       16.012414    
    416500   1873.0286     -801.09088      452.30116      16.030266    
    417000   1843.5188     -805.37527     -8643.2753      15.99717     
    417500   1951.8106     -805.93841     -10903.714      16.129791    
    418000   1957.3009     -801.73474     -7922.9048      16.010517    
    418500   1916.8057     -802.1178      -421.10244      16.025188    
    419000   1942.3488     -803.82802     -8839.2561      16.01471     
    419500   2158.1765     -796.93539     -13971.058      16.088837    
    420000   1873.0447     -803.32854     -3414.1839      16.04171     
    420500   2160.1792     -802.90007      7310.6021      16.019078    
    421000   2026.8227     -797.71435      6769.8563      16.019557    
    421500   2047.1944     -808.46541     -18156.833      15.998902    
    422000   2026.5583     -800.51152     -17636.901      16.083308    
    422500   1853.7907     -806.23717      13458.42       15.946851    
    423000   1967.1822     -807.09046     -18705.856      16.049873    
    423500   1899.3449     -807.04596     -30268.135      16.06019     
    424000   1985.1619     -802.13953     -22797.589      16.007176    
    424500   1954.8205     -802.85539     -7070.5514      16.036112    
    425000   2009.1338     -796.7744       15405.496      15.986372    
    425500   1882.8353     -798.19377      1719.3739      15.998387    
    426000   1963.1184     -802.5647       5538.9229      16.024026    
    426500   1990.4558     -800.12193     -1331.2736      16.024188    
    427000   1970.4151     -805.04458     -6930.0148      16.00484     
    427500   1914.2363     -805.49204      2623.9794      16.026941    
    428000   1909.1951     -805.28158     -5140.0096      16.086166    
    428500   1949.5867     -807.16163     -6024.4139      16.05822     
    429000   1982.0478     -798.18434     -3023.0031      16.019907    
    429500   2117.23       -800.67768     -4776.325       16.012       
    430000   2119.9364     -802.42248     -3086.1276      16.011292    
    430500   1983.6592     -803.82921      218.97881      16.02296     
    431000   1994.5825     -804.14057     -15510.079      15.997687    
    431500   2013.8839     -808.98019      9030.0268      15.88382     
    432000   1902.912      -808.65523      19196.743      15.90219     
    432500   1980.5321     -799.2118      -25710.155      16.081043    
    433000   1851.9851     -799.21744      12108.184      16.021971    
    433500   1852.9552     -804.74567      25020.073      15.983631    
    434000   2277.9132     -805.30419      16889.287      15.967746    
    434500   1986.9894     -798.53404      2654.5215      16.018886    
    435000   2043.0712     -796.71786      21859.741      16.019559    
    435500   2006.0052     -804.49105     -386.41043      16.096072    
    436000   1938.0435     -806.06658      3763.1735      15.991287    
    436500   1775.7697     -806.30005     -16694.036      16.00581     
    437000   2101.3247     -803.61324     -9469.0912      16.0468      
    437500   1977.4048     -807.44449      3017.9344      15.969774    
    438000   1929.7205     -803.38917     -875.55776      15.994616    
    438500   1831.4249     -805.6938      -16100.056      16.088922    
    439000   2054.0312     -803.54741     -1237.156       16.067316    
    439500   1983.9464     -802.7878      -17605.459      16.022825    
    440000   2013.8698     -801.38978      4254.7856      16.036419    
    440500   1902.6831     -803.38801      4.9808516      16.010471    
    441000   2160.5913     -807.54803     -5484.2723      15.948874    
    441500   2295.2834     -805.91504     -7001.8608      16.040876    
    442000   2040.2188     -802.55419      20625.13       15.992714    
    442500   1884.1945     -807.43809      1740.2134      15.975846    
    443000   2016.3585     -803.10251      11135.112      15.987366    
    443500   1793.3041     -799.17419     -2432.0054      16.039363    
    444000   1813.7012     -803.92285      22311.38       15.955753    
    444500   2050.6802     -804.07508      13809.952      15.956592    
    445000   2050.3393     -800.83351      6491.1763      16.015474    
    445500   2062.303      -805.4857      -6636.5847      15.972272    
    446000   2105.596      -788.27965     -11926.095      16.166347    
    446500   1972.893      -801.47914      22512.304      15.980373    
    447000   1937.4475     -806.03931     -11190.991      16.056526    
    447500   1893.5857     -806.78298     -1217.8042      15.999872    
    448000   1977.1668     -813.42107      10840.641      15.926948    
    448500   1954.037      -803.09505      11335.704      16.030908    
    449000   1995.569      -806.31308     -9574.3344      16.030254    
    449500   2045.8142     -806.28772     -4718.5738      16.054448    
    450000   2118.7653     -805.90079     -12950.632      16.000687    
    450500   1829.3681     -803.12099     -7188.0739      16.023195    
    451000   1863.5059     -804.65063      503.14907      15.995657    
    451500   2057.7037     -806.68367     -16168.641      15.996561    
    452000   2131.4062     -808.25691      23545.064      15.91123     
    452500   1814.4386     -802.92513     -8261.8939      15.943124    
    453000   1848.6045     -803.82659      5731.8991      15.959197    
    453500   1904.4986     -804.07387      32592.491      15.949829    
    454000   1984.9151     -801.14276      17878.364      15.944127    
    454500   1783.9081     -810.69552      2190.2743      15.966953    
    455000   2085.6589     -798.35549     -12842.369      16.049482    
    455500   1842.7846     -804.16139     -5827.5424      16.005529    
    456000   1934.1299     -796.35043     -3937.9121      16.020406    
    456500   1855.8212     -804.36055     -16265.417      16.064495    
    457000   2005.2086     -802.80775      16410.376      15.991035    
    457500   1839.6277     -811.79656      6147.4097      15.967066    
    458000   1865.7239     -800.73431     -2584.0132      15.992793    
    458500   1918.9354     -807.53237      23635.221      15.868164    
    459000   1964.0323     -798.10474     -9514.6393      16.100002    
    459500   1912.6477     -804.33585     -6941.2101      16.024708    
    460000   1912.8066     -802.13617     -19547.375      16.080778    
    460500   1832.6217     -805.12196     -17212.283      16.024734    
    461000   1854.0204     -806.24346     -15547.663      16.048389    
    461500   1878.7294     -804.51509      22904.298      15.932808    
    462000   1955.2059     -807.36899     -18213.152      16.020413    
    462500   2015.3505     -811.63831      13575.466      15.964831    
    463000   1902.088      -806.11299     -1190.6674      15.993078    
    463500   1886.5584     -803.90009     -3946.2689      16.027926    
    464000   1992.2251     -802.34678     -2718.7742      16.058373    
    464500   1776.9905     -802.38977      9984.9815      15.919909    
    465000   2017.0519     -807.70948     -3528.0546      15.989597    
    465500   1986.9969     -810.68592      4875.1153      15.968585    
    466000   1975.1503     -801.3016       5372.8441      16.036424    
    466500   2112.9439     -804.10792      12212.104      15.939683    
    467000   1953.9674     -798.90076      6803.1539      16.012332    
    467500   2038.076      -806.40722      7175.4529      15.98293     
    468000   1863.8383     -806.67305     -20119.685      16.081727    
    468500   1826.0169     -803.77027     -24253.399      16.101782    
    469000   2163.0403     -806.437        9368.5464      15.957195    
    469500   1868.5309     -807.49606     -35999.197      16.111051    
    470000   1790.246      -811.29446      3545.1405      16.015272    
    470500   2135.2995     -808.5268       24096.149      15.917238    
    471000   1869.309      -801.71332      5369.1435      16.012101    
    471500   2017.8012     -805.01077     -5411.7524      16.022726    
    472000   1850.391      -805.12676      2608.583       16.09368     
    472500   2016.3672     -804.18746     -1594.7713      16.053882    
    473000   1991.6273     -800.68633     -5774.2532      16.112797    
    473500   2001.9595     -798.26803      17048.208      15.986141    
    474000   2055.9268     -808.99025      18671.955      15.945075    
    474500   1892.211      -805.85198     -9110.1575      16.069621    
    475000   1822.858      -803.24504     -3339.1292      15.938948    
    475500   2112.3171     -806.69325      4650.3018      16.046336    
    476000   1884.4816     -804.95848     -3991.7789      15.976746    
    476500   1742.0519     -806.59237      6244.7386      16.041201    
    477000   1874.4121     -811.36962     -21162.796      16.050839    
    477500   1798.6606     -805.45982     -4545.0007      16.013256    
    478000   1996.1795     -809.19491      4368.1859      15.966008    
    478500   1973.4809     -806.99868     -5432.3277      15.990607    
    479000   1966.6187     -807.89841     -18777.392      16.03476     
    479500   2125.3365     -810.02359      12128.187      15.972541    
    480000   1994.3231     -806.90022      15708.595      16.013199    
    480500   1903.0499     -808.63908      23167.17       15.935004    
    481000   1523.5684     -805.92756      34456.41       15.856553    
    481500   1949.8501     -803.68205      20324.776      15.897334    
    482000   1862.2288     -805.76473      11958.64       15.969182    
    482500   1849.6829     -800.04898     -6433.3161      15.9771      
    483000   2037.5447     -809.61744     -16667.059      16.028107    
    483500   2041.2318     -805.69925     -17494.035      16.093921    
    484000   1953.4554     -803.84306      8440.0316      15.977876    
    484500   1890.6745     -804.62467     -1147.6814      16.005589    
    485000   1947.0665     -805.51553      3769.285       16.019684    
    485500   1715.1885     -808.47178     -5862.4647      15.946295    
    486000   1983.3429     -808.94526      24104.114      15.934353    
    486500   2005.6665     -806.49476      5919.9375      16.029509    
    487000   1942.2802     -799.44094     -5874.2298      16.043682    
    487500   1780.3649     -805.27659     -3328.0838      16.093173    
    488000   1855.2126     -806.16522      214.88779      16.023033    
    488500   1614.2769     -810.20648      11633.898      15.928812    
    489000   1819.4164     -804.89062      4127.021       16.020682    
    489500   1741.0562     -809.13804     -8196.8592      15.982137    
    490000   1941.2308     -801.61142     -280.85397      16.102641    
    490500   1954.1297     -806.8846       10433.18       15.945223    
    491000   1862.1402     -813.33853      13547.577      15.916781    
    491500   1847.0843     -812.65631      6493.3385      15.998489    
    492000   1940.0174     -805.74601     -3541.7854      15.969362    
[...]
    871500   1725.7045     -809.96735      14395.666      15.990541    
    872000   1812.5387     -818.65346      24646.749      15.950328    
    872500   1689.1219     -814.9512      -9128.3725      15.983509    
    873000   1686.9135     -819.57587      15211.677      15.889149    
    873500   1555.9635     -818.14069     -2484.734       15.938877    
    874000   1861.1331     -816.01653      10987.611      15.989393    
    874500   1648.9538     -813.31035      11860.633      15.932123    
    875000   1844.3846     -816.5641       2961.1357      15.938777    
    875500   1773.8201     -810.42174      7104.1177      15.970665    
    876000   1513.2091     -823.48041      3214.3304      16.001921    
    876500   1621.9931     -811.8478      -9555.0742      16.012516    
    877000   1668.2318     -818.10029      11559.488      15.953065    
    877500   1665.0702     -815.51929     -10036.724      15.994695    
    878000   1574.574      -813.70318      8893.9195      15.949179    
    878500   1860.6122     -813.30512      12760.993      15.934389    
    879000   1783.7817     -814.57472      1503.3578      16.025032    
    879500   1679.2597     -817.6955       4956.6457      16.026386    
    880000   1756.0401     -814.17339     -10433.715      16.030724    
    880500   1824.0914     -811.68579      26256.756      15.936545    
    881000   1681.9454     -809.81994      5120.771       15.978952    
    881500   1692.9312     -812.31726     -26125.555      16.039468    
    882000   1660.6301     -812.04564      5650.6697      15.980961    
    882500   1895.1603     -818.29922     -19526.59       15.985205    
    883000   1579.4999     -817.13384      2268.3112      15.941218    
    883500   1687.6544     -815.69423     -536.74967      15.953206    
    884000   1641.0092     -810.1334      -26303.295      15.98063     
    884500   1790.5785     -809.17456      13414.899      15.913643    
    885000   1734.5274     -808.9275       15851.016      15.952058    
    885500   1566.4864     -806.18886     -2598.4412      15.963696    
    886000   1718.0258     -816.14751      3532.3965      15.932448    
    886500   1812.7701     -812.70409      18081.671      15.9099      
    887000   1698.6999     -819.06937      4962.7383      16.00962     
    887500   1678.5697     -811.23749     -11426.201      16.008318    
    888000   1760.6146     -817.18873     -6473.6039      16.020151    
    888500   1568.2794     -815.01931      7840.4173      15.943324    
    889000   1831.303      -811.9623      -1365.0533      16.014893    
    889500   1705.3201     -819.38614     -14325.581      16.047528    
    890000   1739.2201     -811.34101     -13163.397      16.021705    
    890500   1701.6568     -812.00973     -8012.0475      15.986941    
    891000   1693.8537     -811.20734     -4711.293       15.977069    
    891500   1862.5876     -815.87086      14093.618      15.891121    
    892000   1697.7729     -811.85804      3619.9808      15.951162    
    892500   1654.0872     -817.65776      17654.652      15.9259      
    893000   1802.2214     -812.31925      86.913624      16.008758    
    893500   1699.5354     -810.33534     -4105.0685      16.012822    
    894000   1799.7562     -818.16394     -574.64408      15.953602    
    894500   1554.8887     -814.42174     -16637.37       15.964242    
    895000   1651.2056     -808.30585     -12414.042      15.946778    
    895500   1709.4737     -808.91163      4386.0525      15.950194    
    896000   1801.6035     -811.99858      1627.5019      15.986418    
    896500   1664.3028     -809.41719     -4153.6132      15.974797    
    897000   1670.885      -811.97996      6931.9121      15.951656    
    897500   1837.5056     -815.03607     -2260.3924      15.956974    
    898000   1687.2625     -810.58743      11119.277      15.946197    
    898500   1728.5893     -819.79944     -1660.7859      15.947537    
    899000   1812.2576     -812.26586      571.64818      16.029291    
    899500   1741.9291     -815.12089      4574.6704      15.973782    
    900000   1760.6744     -817.35293      6844.2509      15.968085    
    900500   1698.9821     -809.1466      -3424.8646      16.030815    
    901000   1703.9763     -818.3931       9358.0443      15.955579    
    901500   1782.6017     -816.8429       19431.152      15.937571    
    902000   1649.2951     -810.67107      9525.2106      15.955615    
    902500   1568.943      -809.32608     -13643.054      15.99652     
    903000   1751.7234     -806.56287     -12100.012      16.04958     
    903500   1806.9421     -811.21068     -6284.2083      15.983072    
    904000   1642.3302     -817.17199      2725.765       15.997373    
    904500   1678.7085     -819.72267     -16003.733      15.976067    
    905000   1634.0788     -811.18773      11209.977      15.990822    
    905500   1513.278      -811.4744      -24843.281      16.110653    
    906000   1700.5134     -808.90398      7389.2792      16.025734    
    906500   1775.9556     -813.25613      11267.473      15.928499    
    907000   1734.2926     -812.07672      19669.793      15.915444    
    907500   1832.9763     -814.63167      6806.9927      15.966153    
    908000   1623.1939     -815.61072      1329.4218      15.960934    
    908500   1551.693      -818.60528     -3631.0084      16.01062     
    909000   1562.0466     -812.05065     -12689.344      16.057147    
    909500   1800.9048     -814.24999      4962.2822      15.99215     
    910000   1644.2238     -816.10391     -2816.5149      16.051714    
    910500   1749.7149     -813.12011     -1370.0405      15.971306    
    911000   1803.8972     -815.91521      2214.6159      15.970452    
    911500   1915.6971     -813.42778     -13596.498      15.991096    
    912000   1729.7159     -813.33931     -13532.512      16.006315    
    912500   1687.868      -815.8499      -7831.9007      16.102068    
    913000   1781.6512     -812.51447      9641.7158      15.922393    
    913500   1507.6976     -814.67554     -11995.158      15.985564    
    914000   1696.9063     -815.20613      10594.671      15.927618    
    914500   1475.4867     -813.17239      1095.5825      15.930377    
    915000   1745.6796     -813.34258      14070.358      15.979953    
    915500   1760.6082     -807.4936       3415.577       16.032657    
    916000   1674.0469     -813.74884      6023.9542      15.937499    
    916500   1847.0869     -816.98688      10313.894      15.962589    
    917000   1590.8203     -816.0006      -3067.0807      16.00286     
    917500   1792.3828     -811.68096      3086.686       15.932378    
    918000   1731.5402     -817.63765      25066.802      15.905579    
    918500   1459.8279     -815.52263      12744.427      16.015997    
    919000   1667.1519     -814.54059     -3285.3138      16.024731    
    919500   1708.6962     -814.68135     -8812.6343      15.954865    
    920000   1683.978      -818.875        12402.463      16.007365    
    920500   1824.0661     -817.39564     -20510.65       16.08887     
    921000   1726.38       -817.09507     -15278.637      15.99178     
    921500   1859.5905     -812.93422      23596.062      15.944223    
    922000   1712.8956     -811.19293      10748.925      15.989422    
    922500   1757.421      -810.52119      2822.9163      16.049769    
    923000   1671.7242     -808.35582     -22443.173      16.074663    
    923500   1828.385      -811.18975      21154.192      15.933554    
    924000   1692.9813     -818.26111     -10515.689      15.994118    
    924500   1640.4018     -811.96412     -5224.709       16.025855    
    925000   1738.8998     -813.08442      10767.82       15.962711    
    925500   1752.8982     -813.73269      10318.176      15.949625    
    926000   1808.6627     -811.13555      14753.614      15.959077    
    926500   1765.3505     -814.35477      2395.9059      15.998986    
    927000   1702.7605     -813.43152      562.68041      15.997354    
    927500   1848.9723     -817.91919      3091.9948      15.998655    
    928000   1955.458      -816.36289      10789.63       15.978421    
    928500   1747.7429     -816.62558     -13929.449      15.892756    
    929000   1650.9196     -816.18611      14156.152      15.907002    
    929500   1625.2538     -815.11786     -7828.9414      15.950759    
    930000   1694.5558     -808.38576      4490.3053      15.997279    
    930500   1654.4631     -814.52494     -11640.611      16.001506    
    931000   1621.4838     -808.55979      26388.902      15.912715    
    931500   1601.1667     -813.74307      72.198195      15.935166    
    932000   1689.9484     -816.34601     -2354.1463      16.005145    
    932500   1678.7644     -812.39248      4307.8202      15.956336    
    933000   1638.8962     -814.38843     -6139.8896      15.924012    
    933500   1832.5422     -816.57977     -5588.2781      15.960156    
    934000   1764.0991     -816.044       -8005.1666      15.981181    
    934500   1623.6824     -815.07112      6288.661       15.91087     
    935000   1879.6718     -818.57051      1068.8388      15.876205    
    935500   1753.8107     -814.88539      15715.784      15.961811    
    936000   1794.7635     -808.72318     -3581.3014      15.982588    
    936500   1632.1206     -812.76789      19890.166      15.951482    
    937000   1626.0849     -814.32863      14251.303      15.967604    
    937500   1592.8231     -809.50652     -4728.8562      16.015435    
    938000   1746.501      -815.08041      7559.1749      15.902474    
    938500   1619.7062     -812.49816      10233.259      15.890725    
    939000   1578.0565     -816.93509      13894.172      15.897397    
    939500   1749.9398     -808.17214     -21558.492      16.078522    
    940000   1912.836      -815.84481     -4225.4568      15.957631    
    940500   1762.4187     -808.7569      -5706.5234      16.019756    
    941000   1815.4873     -814.2975      -9328.4286      15.969586    
    941500   1774.6485     -813.55577      17594.74       15.905581    
    942000   1403.7935     -812.49817     -28425.474      15.977075    
    942500   1709.2678     -814.88903     -7435.7277      15.998232    
    943000   1833.346      -809.84569     -10252.588      16.049063    
    943500   1509.0687     -808.56005     -2606.6914      15.956981    
    944000   1704.81       -819.16048      4892.4995      15.911273    
    944500   1647.6201     -812.88244      552.258        16.047494    
    945000   1695.636      -808.25883     -5751.7642      16.063919    
    945500   1888.476      -812.56706     -8535.6013      15.95148     
    946000   1661.6685     -813.01996     -1367.7258      15.971421    
    946500   1772.5355     -817.64768     -101.78594      15.97716     
    947000   1927.6236     -816.07536      12297.223      15.926787    
    947500   1691.6038     -807.5852      -5069.5655      15.979641    
    948000   1792.3516     -810.73356      2151.562       15.9235      
    948500   1660.4917     -806.24895     -2644.2579      15.978865    
    949000   1601.1462     -817.30722     -2308.1971      15.947281    
    949500   1772.0025     -811.49674      10911.8        15.979161    
    950000   1798.7217     -815.6553       14942.799      15.929454    
    950500   1813.2505     -811.84719     -15430.102      15.990266    
    951000   1749.3312     -811.81704     -5467.4244      15.965099    
    951500   1792.2481     -809.2363       16768.855      15.983926    
    952000   1783.655      -810.33418      34815.885      15.931228    
    952500   1662.0109     -809.06079     -313.77708      15.956495    
    953000   1708.5514     -814.24411     -71.754944      15.968805    
    953500   1607.4311     -818.03027     -2955.765       15.951405    
    954000   1813.3036     -807.60443     -6157.2812      16.04836     
    954500   1810.6078     -811.72492      10163.014      15.982987    
    955000   1677.6684     -812.27707      9961.7174      15.953851    
    955500   1740.8073     -812.37994      4452.8326      15.995343    
    956000   1484.2569     -816.35195      12902.685      15.968099    
    956500   1591.5296     -817.08526      3199.361       16.044845    
    957000   1634.6104     -813.04873      12234.644      15.974678    
    957500   1700.6358     -812.36452     -8032.726       15.946863    
    958000   1738.3706     -810.2675       10291.092      15.92563     
    958500   1774.9366     -815.59565      13942.451      15.966631    
    959000   1564.3048     -812.77462     -94.814428      15.935372    
    959500   1750.2819     -813.70077     -3678.5777      16.005978    
    960000   1877.335      -809.40693     -1406.2021      16.063983    
    960500   1664.9929     -810.73594     -2751.0328      15.981099    
    961000   1709.9064     -818.63216      7826.9674      15.991053    
    961500   1671.8935     -818.45076     -13606.3        16.020139    
    962000   1748.5209     -811.84794     -13312.543      16.076907    
    962500   1628.4937     -812.79986     -1395.032       16.02014     
    963000   1717.2735     -814.05266      3502.2112      15.956843    
    963500   1740.5177     -810.67868      4771.5275      15.978903    
    964000   1592.4757     -812.93324      6103.7899      15.957537    
    964500   1801.3267     -814.06933     -13634.854      16.010988    
    965000   1927.3631     -815.1047      -427.46969      16.00735     
    965500   1723.5375     -813.30899      2472.8663      15.937586    
    966000   1651.7697     -814.63565     -13755.186      15.981222    
    966500   1702.18       -816.03033     -4818.155       15.978503    
    967000   1668.0197     -809.36651     -498.47663      16.019617    
    967500   1583.198      -813.74648     -8607.9611      16.011073    
    968000   1806.9277     -811.90345     -18573.488      15.971296    
    968500   1742.8609     -811.61519      22583.372      15.932115    
    969000   1793.1853     -813.2075       30033.2        15.943385    
    969500   1663.8774     -817.80175     -1020.9505      15.9199      
    970000   1670.8993     -815.12855      605.55968      15.9377      
    970500   1893.9827     -810.71886      14695.11       15.882983    
    971000   1588.6546     -809.8821      -18564.498      16.04673     
    971500   1779.1934     -813.21967      14741.725      15.93031     
    972000   1829.4033     -816.09469      6882.4974      15.907595    
    972500   1689.0372     -811.58661      10795.302      15.978031    
    973000   1700.1441     -810.39118     -10522.187      16.014268    
    973500   1742.0115     -819.12859      5073.0082      15.986726    
    974000   1798.7125     -811.71577     -10779.381      15.983842    
    974500   1752.2113     -811.38188     -8221.0258      15.976588    
    975000   1646.2552     -809.38214     -11715.406      16.015428    
    975500   1777.464      -815.79148      1893.8206      16.011868    
    976000   1777.8391     -815.24223      10075.119      15.912486    
    976500   1708.2493     -812.95561     -2628.2483      15.975252    
    977000   1588.4995     -806.67493     -7619.3155      16.033409    
    977500   1758.9882     -818.45481     -21075.839      16.000968    
    978000   1682.4694     -814.4102      -2056.9449      15.964504    
    978500   1859.4546     -809.49078      11122.994      15.991222    
    979000   1641.0165     -810.19849     -21017.676      16.048121    
    979500   1641.6409     -813.58089     -10237.807      16.011343    
    980000   1734.2886     -818.95121      19190.321      15.919828    
    980500   1749.2806     -812.64529     -2881.1294      15.982169    
    981000   1646.0239     -811.60249     -2603.7834      15.936314    
    981500   1664.0903     -804.43624     -7477.9116      16.017559    
    982000   1836.5759     -814.83143     -3081.0951      15.986338    
    982500   1706.7262     -814.20359     -17505.678      16.059756    
    983000   1641.5739     -809.728       -3973.81        15.970357    
    983500   1627.9008     -814.4489       24436.626      15.885665    
    984000   1593.0584     -816.98026      18613.065      15.97724     
    984500   1730.5889     -816.42185     -14989.345      15.98873     
    985000   1698.3359     -821.31914     -391.13193      16.053671    
    985500   1863.552      -812.61343     -16870.928      16.079299    
    986000   1747.2334     -817.54961      983.56082      15.971382    
    986500   1683.1436     -808.7628       2380.0493      16.01417     
    987000   1807.1227     -817.62361      26956.588      15.940437    
    987500   1746.0638     -809.51635      3783.5289      16.067555    
    988000   1654.1479     -818.72614      17341.947      15.886232    
    988500   1896.3281     -802.33588      10699.93       15.983622    
    989000   1615.5344     -812.3355      -396.27833      15.976222    
    989500   1720.3586     -813.0208       1928.5809      15.954927    
    990000   1814.9008     -819.3832       16839.672      15.945614    
    990500   1826.3787     -813.9165      -15460.987      16.040193    
    991000   1897.7483     -816.65992      8472.9536      15.941035    
    991500   1697.9769     -815.58883      18120.428      15.919262    
    992000   1708.8636     -812.76964     -17014.005      16.063731    
    992500   1664.4968     -811.13153     -15394.087      16.051015    
    993000   1765.7319     -813.09171      2722.617       16.011098    
    993500   1630.701      -815.2519       27899.603      15.961759    
    994000   1802.0285     -813.6825      -3258.6759      15.952111    
    994500   1789.3663     -814.54392      17236.609      15.983562    
    995000   1601.5331     -817.50778      8245.2167      15.971029    
    995500   1732.2418     -814.69161     -14083.173      16.028242    
    996000   1681.972      -813.07176      5140.9109      15.988912    
    996500   1703.2957     -815.41911      12119.9        16.008057    
    997000   1681.0544     -814.5004       3719.3678      16.019007    
    997500   1633.154      -817.49819     -6586.2582      15.972794    
    998000   1610.7318     -815.25204     -3764.3019      16.004194    
    998500   1837.2878     -814.55786      457.41512      16.063016    
    999000   1651.6793     -813.58181     -11209.575      16.018609    
    999500   1628.092      -818.38255     -13542.771      15.984013    
   1000000   1686.2613     -814.67645      29375.793      15.916899    
Loop time of 109.9 on 12 procs for 1000000 steps with 216 atoms

Performance: 1572.341 ns/day, 0.015 hours/ns, 9099.197 timesteps/s
99.4% CPU use with 12 MPI tasks x 1 OpenMP threads

MPI task timing breakdown:
Section |  min time  |  avg time  |  max time  |%varavg| %total
---------------------------------------------------------------
Pair    | 56.385     | 56.579     | 57.201     |   2.7 | 51.48
Bond    | 0.040437   | 0.04606    | 0.051107   |   1.2 |  0.04
Neigh   | 1.7893     | 1.8034     | 1.8224     |   0.8 |  1.64
Comm    | 30.445     | 30.965     | 31.475     |   6.6 | 28.18
Output  | 3.9076     | 3.9091     | 3.9226     |   0.2 |  3.56
Modify  | 14.419     | 14.842     | 15.343     |   9.6 | 13.51
Other   |            | 1.755      |            |       |  1.60

Nlocal:             18 ave          22 max          16 min
Histogram: 2 4 0 2 0 2 1 0 0 1
Nghost:        323.417 ave         332 max         313 min
Histogram: 1 1 0 2 2 1 0 2 2 1
Neighs:              0 ave           0 max           0 min
Histogram: 12 0 0 0 0 0 0 0 0 0
FullNghs:      750.833 ave         926 max         658 min
Histogram: 2 2 2 2 2 0 1 0 0 1

Total # of neighbors = 9010
Ave neighs/atom = 41.712963
Ave special neighs/atom = 0
Neighbor list builds = 40615
Dangerous builds = 0

unfix		3
unfix		2
unfix		1

write_data	data.final
System init for write_data ...
Total wall time: 0:02:53
