LAMMPS data file via write_data, version 23 Jun 2022, timestep = 1000000

216 atoms
1 atom types

-0.05469170697766934 16.34679170697995 xlo xhi
-0.05469170697766934 16.34679170697995 ylo yhi
-0.05469170697766934 16.34679170697995 zlo zhi

Masses

1 28.0855

Atoms # full

5 0 1 0 1.48246915131426 1.5962706110053857 0.8590775108359351 0 0 0
2 0 1 0 0.0032919204250902354 2.518043159243929 2.4560267078628555 0 0 0
4 0 1 0 2.8869871817465502 3.0095670561662393 0.14065401850466755 0 0 0
6 0 1 0 1.1930004763304645 3.8073864085527016 3.85160245843826 0 0 0
3 0 1 0 2.5647676426150996 0.2874780233146288 2.56117127070692 0 0 0
40 0 1 0 2.532525859624894 2.751495475784697 5.411560886625327 0 0 0
7 0 1 0 3.8800356248303256 1.3919708923131227 4.285287209315754 0 0 0
10 0 1 0 5.342312326867776 2.588202730289723 2.845493092012204 0 0 0
9 0 1 0 5.350700142417954 0.01224249940860389 0.20813880325804496 0 0 0
13 0 1 0 6.7670349381900365 1.6432225499837856 1.0640568349495672 0 0 0
15 0 1 0 9.532458603709356 1.4717780200816917 3.826475814589616 0 0 0
11 0 1 0 8.149934968011282 0.09398200165383873 2.604515087577895 0 0 0
48 0 1 0 7.764620131450063 2.5689956703736336 5.153414888244944 0 0 0
18 0 1 0 10.81896767461192 2.8339394608363118 2.3024626693652364 0 0 0
21 0 1 0 12.152818448716593 1.4699967484974819 1.4228864866808466 0 0 0
53 0 1 0 10.879377942137939 0.05172555729894723 5.19061326133701 0 0 0
17 0 1 0 10.93035800782284 0.0532191109371213 -0.025855377629754896 0 0 0
20 0 1 0 13.79217672763494 2.9496187882267 0.042459069731706905 0 0 0
23 0 1 0 14.84279353674499 1.4623907678496255 3.6276930096537097 0 0 0
56 0 1 0 13.441082078106943 2.6439492873927195 5.188447059147826 0 0 0
37 0 1 0 15.99403907866057 0.15800571482441553 5.365021854031016 -1 0 0
26 0 1 0 2.6724167361005433 5.463566756970219 2.7153884453576427 0 0 0
27 0 1 0 1.2530567935681822 6.839810287402091 1.715664527892086 0 0 0
25 0 1 0 0.16679344584618908 5.501293922314232 0.11908592157971166 0 0 0
110 0 1 0 2.658007073796963 8.132139461501087 0.18739557878859683 0 0 0
8 0 1 0 4.335188852811317 4.356466467305298 1.5015519626896519 0 0 0
28 0 1 0 3.9893111591558013 6.939418076414913 3.8668240322900393 0 0 0
65 0 1 0 5.153206885701859 5.458631230104014 5.4091125456459554 0 0 0
113 0 1 0 5.569458275944826 8.118458294858792 2.943768187177678 0 0 0
29 0 1 0 5.399368591919657 5.703687837607542 0.04829572013863003 0 0 0
16 0 1 0 9.660462956045775 4.23456144419366 0.9682228605087243 0 0 0
30 0 1 0 8.168959443624672 5.220542550508403 2.5763121981748713 0 0 0
14 0 1 0 6.581035928657203 4.125311182392348 3.6648282550677513 0 0 0
31 0 1 0 6.914626786900406 6.987561612453761 1.3930135037271698 0 0 0
32 0 1 0 9.439709655184146 6.768912309112322 3.973721394185379 0 0 0
22 0 1 0 11.942686125980037 4.065780922257654 4.233068938528785 0 0 0
35 0 1 0 12.2694764590165 6.904154677906092 1.31135995715853 0 0 0
34 0 1 0 13.451232685114443 5.372828540425042 2.765290578100121 0 0 0
24 0 1 0 15.12215511764035 4.117285731322484 1.4125214702248794 0 0 0
36 0 1 0 14.712402079346997 6.864807671745915 4.171890463171961 0 0 0
61 0 1 0 16.320126683784768 5.554264837444919 5.357992686366006 -1 0 0
118 0 1 0 13.821598146056255 7.975278082568177 0.055818861658659256 0 0 0
41 0 1 0 1.2917172541335715 1.2448947885114063 6.688060321492921 0 0 0
42 0 1 0 1.07864499106907 4.016789465115882 9.571727852957782 0 0 0
76 0 1 0 2.3248571582080575 2.494694230823137 10.6961640792637 0 0 0
43 0 1 0 3.9105715443146294 1.1077734187882649 9.459046828113507 0 0 0
46 0 1 0 5.354467326587686 2.4309601583820784 8.142902908902572 0 0 0
44 0 1 0 4.088941109066193 3.9777861347120322 6.831407412394622 0 0 0
52 0 1 0 9.25279718067657 3.972918278165827 6.499224682710094 0 0 0
49 0 1 0 6.711022697068544 1.0599530846106775 6.79565179949056 0 0 0
51 0 1 0 9.402407236289804 1.1865166987280749 9.377452668812795 0 0 0
50 0 1 0 6.664661201736076 3.7837196727887643 9.479914256515123 0 0 0
84 0 1 0 8.286110757421037 2.6920342095903926 10.732167746881705 0 0 0
54 0 1 0 10.797508298557073 2.6762261410880828 7.9858671299209885 0 0 0
57 0 1 0 12.157489264534286 1.3824817599958805 6.586141136096438 0 0 0
58 0 1 0 12.019638796421967 3.91595711022962 9.501292125138344 0 0 0
89 0 1 0 10.90473849389735 0.11340344203087133 10.850820716249201 0 0 0
38 0 1 0 16.273064910882642 2.788467908632088 7.945487330273268 -1 0 0
60 0 1 0 14.997228460470195 3.989456057439441 6.630633851195759 0 0 0
59 0 1 0 15.17294333967384 1.1767836419164188 9.389353826092885 0 0 0
145 0 1 0 0.15914627205785317 8.01343700660467 8.081612113661707 0 0 0
62 0 1 0 2.602440992088069 5.5138170109766635 7.978590684435692 0 0 0
63 0 1 0 1.403521519066674 6.838154047206521 6.52810283839332 0 0 0
97 0 1 0 0.028621276000151852 5.529804599706536 10.779142639828539 0 0 0
149 0 1 0 5.518914233942257 8.063856704513146 7.915682946895934 0 0 0
64 0 1 0 4.124740302489028 7.008580338511315 9.330127216706007 0 0 0
101 0 1 0 5.175179984004331 5.418850785656256 10.745287918601996 0 0 0
66 0 1 0 7.985324636200994 5.191881978534754 8.204558890958955 0 0 0
68 0 1 0 9.635923998963198 6.301876958331086 9.623822481937166 0 0 0
67 0 1 0 6.79012336885652 6.594754404261412 6.5967737300239415 0 0 0
186 0 1 0 8.327145500615744 8.139726778749592 10.83568293241111 0 0 0
71 0 1 0 12.004299940783213 6.550270847960917 7.033518697689317 0 0 0
153 0 1 0 10.589254544949538 7.791149620582725 8.107534125650188 0 0 0
69 0 1 0 10.771456125078776 5.457546902297962 5.413373413452265 0 0 0
70 0 1 0 13.5558870006308 5.228636251899489 8.154038023924599 0 0 0
72 0 1 0 14.952019554549848 6.910247990673996 9.32581924003129 0 0 0
154 0 1 0 13.416951930230516 7.890183280256427 5.669404734130414 0 0 0
190 0 1 0 13.58185104310629 8.133367420106566 10.630779864360337 0 0 0
77 0 1 0 1.140460991751336 1.156372009485477 12.264859658827008 0 0 0
74 0 1 0 0.12658550948618869 2.628385655559316 13.605740057280283 0 0 0
75 0 1 0 2.925246460465592 -0.02273805817227973 13.387857616018547 0 0 0
79 0 1 0 3.9729647173660885 1.384565313666246 15.021665949409558 0 0 0
82 0 1 0 5.293009070721423 2.834314700748545 13.657458020395698 0 0 0
80 0 1 0 3.9220070421873614 3.967801700670485 12.186295262684736 0 0 0
85 0 1 0 6.810420563013922 1.3892648239934502 12.346899581630892 0 0 0
87 0 1 0 9.377238081652404 1.4010990627917572 15.086244390625902 0 0 0
88 0 1 0 9.62926184939522 3.8891140649864133 12.46840540475873 0 0 0
83 0 1 0 8.269553173287163 0.11766399907751542 13.525846962537008 0 0 0
12 0 1 0 8.297946351713732 3.0476456574891464 16.02797024533585 0 0 -1
90 0 1 0 10.90642318020612 2.516716389959886 13.761277249635958 0 0 0
93 0 1 0 12.404935139869362 1.1821571648083673 12.432856923039575 0 0 0
95 0 1 0 15.038645019712089 1.3253802616944363 14.963835608188441 0 0 0
96 0 1 0 15.191966826261519 3.783807467232585 11.991569874383627 0 0 0
92 0 1 0 13.444057476445737 2.3081466671175437 10.959548573776672 0 0 0
78 0 1 0 1.4805153607824102 4.180336705091574 14.804989127447126 0 0 0
181 0 1 0 -0.035042655046869306 8.038420081153394 13.50311860881609 0 0 0
99 0 1 0 1.3243434958975795 6.864928008131282 12.141331456085327 0 0 0
98 0 1 0 2.6598280144445816 5.623911734463515 13.708904339620052 0 0 0
100 0 1 0 3.9104916639533025 7.043531788334234 15.11519302233737 0 0 0
185 0 1 0 5.468193433570691 8.050549996824135 13.820544063031486 0 0 0
103 0 1 0 6.629140445094226 6.6776548094513455 11.94352464755736 0 0 0
102 0 1 0 8.019271679852807 5.556530228963566 13.457688740708214 0 0 0
104 0 1 0 9.64175629290575 6.693692812212439 14.940779560192752 0 0 0
86 0 1 0 6.5669011824384045 4.184527752701415 14.744537336483663 0 0 0
105 0 1 0 11.009723581063344 5.222477718969081 10.996754874072797 0 0 0
94 0 1 0 12.088548618607362 4.116788307175971 14.99743662028416 0 0 0
189 0 1 0 11.119171998612662 8.06620541881841 13.524701527630217 0 0 0
107 0 1 0 12.378869052987168 6.623336977090023 12.219885195188343 0 0 0
33 0 1 0 11.091090151413507 5.6310578748658395 16.284254039336446 0 0 -1
106 0 1 0 13.853228141711234 5.163146134973502 13.284644871471539 0 0 0
108 0 1 0 15.147211537012815 6.574655878994764 15.146758235179874 0 0 0
111 0 1 0 1.367252353595011 10.038129439063594 3.9266562794234345 0 0 0
123 0 1 0 2.7028510502786864 11.037300236136833 2.6246196970069646 0 0 0
121 0 1 0 0.2231537251823252 10.66269631517207 0.2160531074964426 0 0 0
109 0 1 0 0.02424769342155031 8.146825734000853 3.1539961689355693 0 0 0
146 0 1 0 2.542869402618482 8.441725710183665 5.276660161961507 0 0 0
112 0 1 0 4.136570769809744 9.50633071419723 1.570010738556232 0 0 0
129 0 1 0 5.326403986755946 10.925412103894292 0.0381072119987516 0 0 0
150 0 1 0 8.005999535891348 8.19893871903388 5.349250460442431 0 0 0
115 0 1 0 6.742322879679641 9.861678208958494 4.126696737001561 0 0 0
131 0 1 0 8.11459099059818 11.040294587535131 2.6107423401614014 0 0 0
116 0 1 0 9.638196562180765 9.80724241235626 1.4710002000081326 0 0 0
114 0 1 0 8.445443075499593 8.398697489482029 0.07749714261136845 0 0 0
117 0 1 0 10.984001048499934 8.19802419952129 2.81832003088344 0 0 0
141 0 1 0 12.420632862152022 12.222840279949613 1.4628262531178047 0 0 0
119 0 1 0 12.249350739301013 9.280894584897508 4.468485825173892 0 0 0
143 0 1 0 14.740662634000882 12.083182532988166 4.4146630980546515 0 0 0
139 0 1 0 13.750043949533614 10.598881226231349 3.1607607353511424 0 0 0
120 0 1 0 14.989638868754279 9.330919503911057 1.7447636489541325 0 0 0
125 0 1 0 1.2443057378766968 12.304201795596136 1.3191891344811393 0 0 0
126 0 1 0 1.2120704028347393 15.224282933892876 4.272069232451319 0 0 0
124 0 1 0 2.718359026275141 13.53611650292277 -0.05196933192214104 0 0 0
127 0 1 0 3.9925543018430067 12.365311583486736 4.115627679687174 0 0 0
128 0 1 0 3.716693737052656 15.072172976702033 1.5878008582913854 0 0 0
130 0 1 0 5.379953008077368 13.931420817197875 2.757943818103609 0 0 0
135 0 1 0 9.372218856706052 12.41453113308483 3.8918371136766208 0 0 0
133 0 1 0 6.703505764349671 12.452102127755298 1.502304603171292 0 0 0
136 0 1 0 9.538942064566855 14.873158434464145 0.997541863521865 0 0 0
134 0 1 0 6.935585845997646 15.01206971685539 4.074555174029224 0 0 0
138 0 1 0 10.8651490347023 13.702778227201057 2.4904807520255567 0 0 0
142 0 1 0 12.296325337455734 14.989756072789492 3.9173116919283504 0 0 0
140 0 1 0 13.77386486244538 13.51803875357696 -0.019842731263676028 0 0 0
144 0 1 0 15.175322596058672 14.759927219387032 1.217775213027564 0 0 0
122 0 1 0 16.188010626682924 13.492285893871934 3.0277209771887645 -1 0 0
19 0 1 0 13.821422303606138 16.1253469898335 2.4059933317959508 0 -1 0
147 0 1 0 1.3031990312721198 9.436707891014308 9.516726254386326 0 0 0
159 0 1 0 2.439867691531275 10.701062147209461 7.951094453836852 0 0 0
157 0 1 0 -0.0007235185672520788 11.12781833827791 5.582150291001037 0 0 0
182 0 1 0 2.8999436915127603 8.220373482028803 10.86854040210899 0 0 0
148 0 1 0 4.108993528005592 9.350461232838505 6.569249109851398 0 0 0
163 0 1 0 3.772113495780215 12.027507894573837 9.518830983732748 0 0 0
165 0 1 0 5.352164905699671 11.154309619472823 5.471404493687294 0 0 0
151 0 1 0 6.802137005845993 9.539302101979677 9.28583674676534 0 0 0
167 0 1 0 8.214945634292526 10.923196770451877 7.93044103096833 0 0 0
152 0 1 0 9.531022789948828 9.350940323626622 6.732870828164307 0 0 0
155 0 1 0 12.062342884451466 9.532251556853852 9.528022942428775 0 0 0
209 0 1 0 10.80031665354914 10.98737907812679 10.816649510225787 0 0 0
173 0 1 0 10.966683407270562 11.037129529320973 5.624652413471489 0 0 0
175 0 1 0 13.618477654332226 10.831728341481421 8.32593103586309 0 0 0
156 0 1 0 14.995355629778288 9.558356133545237 6.991800442561972 0 0 0
193 0 1 0 16.243105912954316 10.634141803792849 10.788990280572788 -1 0 0
39 0 1 0 2.2946574819551544 16.146158113723178 8.303680372672911 0 -1 0
161 0 1 0 1.269566701768081 12.34541786068624 6.966864311669973 0 0 0
162 0 1 0 1.412357937193706 14.85182885016184 10.068028571649041 0 0 0
160 0 1 0 2.7475114125620657 13.805881509926182 5.459098836005515 0 0 0
164 0 1 0 4.059937990863876 14.943138383503369 7.10871118837585 0 0 0
166 0 1 0 5.2814560644927155 13.55097329659706 8.435008133187868 0 0 0
45 0 1 0 5.242928234333128 16.34006689001774 5.547434619653306 0 -1 0
81 0 1 0 5.476776921596664 16.29376438668734 10.722323158131168 0 -1 0
168 0 1 0 8.226830088349832 13.870545737078807 5.541658238292911 0 0 0
170 0 1 0 6.863963798447225 14.966216765002724 9.352243317858946 0 0 0
171 0 1 0 9.496235903912098 12.326745795306104 9.463539114482924 0 0 0
169 0 1 0 6.956387444842775 12.509013446739297 6.74635477148915 0 0 0
47 0 1 0 8.17475616397213 16.172527113463122 8.110996011462726 0 -1 0
204 0 1 0 8.28888744545396 13.408475996178268 10.85039160401287 0 0 0
177 0 1 0 12.166300578895793 12.321699957193786 6.99248895659009 0 0 0
174 0 1 0 11.114431338873938 13.998406942517407 8.243163093965915 0 0 0
178 0 1 0 12.33617711833509 15.288899794485133 9.628988324380993 0 0 0
172 0 1 0 9.819081953394964 15.018275196320966 6.629353022849963 0 0 0
55 0 1 0 13.77431287896426 16.304609728978075 7.9510073775025285 0 -1 0
179 0 1 0 14.852073689532778 12.352936063175415 9.9048415300068 0 0 0
180 0 1 0 14.980895851194273 14.983845122737653 6.70894950325447 0 0 0
158 0 1 0 16.260422936808826 13.73035143185475 8.525922702728158 -1 0 0
176 0 1 0 13.367403707274601 13.78614417204582 5.420769067545237 0 0 0
183 0 1 0 1.259031088210604 9.250561334883585 15.06572065945204 0 0 0
195 0 1 0 2.7319883362968707 10.885794896696554 13.797098021507605 0 0 0
197 0 1 0 1.114437314178214 11.889684952697904 12.263454641261319 0 0 0
201 0 1 0 5.415132324244829 10.573833953511574 10.89078105270099 0 0 0
184 0 1 0 4.054354710962755 9.355595707058725 12.484159075295294 0 0 0
187 0 1 0 6.818882615189959 9.575471412825447 15.07902206281693 0 0 0
203 0 1 0 8.310489638160792 11.05517123020695 13.586468935047096 0 0 0
188 0 1 0 9.748087876630327 9.690553279962483 12.309234025545104 0 0 0
207 0 1 0 9.668091766647883 12.1349254996249 15.0723322347174 0 0 0
205 0 1 0 6.734016982875158 12.074920802635761 12.087190609886504 0 0 0
213 0 1 0 12.046860674276328 12.180550790095392 12.185655669937823 0 0 0
191 0 1 0 12.622101749434291 9.42802185794105 14.734381315774307 0 0 0
137 0 1 0 11.197461807965754 10.688368150545095 16.202616434357363 0 0 -1
211 0 1 0 13.92420548786602 10.806594751525456 13.282880827340236 0 0 0
192 0 1 0 15.178455133936037 9.293407051724602 11.996084002697911 0 0 0
215 0 1 0 15.238627021553306 11.880247284511281 15.096086537746379 0 0 0
194 0 1 0 0.07282804521823645 13.464505499750206 13.70323322575124 0 0 0
198 0 1 0 1.7494990327133064 14.700052968160033 14.820320900796787 0 0 0
1 0 1 0 0.1738677019911577 16.299128549653734 16.165413098353287 0 -1 -1
196 0 1 0 2.701832296757434 13.354519031551067 11.185160459173874 0 0 0
199 0 1 0 4.052533826083473 12.373363167119528 14.843845005341826 0 0 0
202 0 1 0 5.465259318443262 13.61075110536542 13.491859717232504 0 0 0
200 0 1 0 4.2781588075133135 14.855083019253858 12.13556742886782 0 0 0
206 0 1 0 6.571617358432297 15.170127115960996 14.76711205456066 0 0 0
208 0 1 0 9.236826866336976 15.125385093527434 12.064347155618774 0 0 0
132 0 1 0 7.9677269253322045 13.527075798144086 16.118542343180017 0 0 -1
210 0 1 0 10.69496241148635 13.752303830399374 13.457695350322684 0 0 0
214 0 1 0 12.109209437962166 14.955198550741642 15.197915198122983 0 0 0
91 0 1 0 13.770171906886915 15.981993730564692 13.933962563841488 0 -1 0
216 0 1 0 14.874339020076762 14.750698154164985 12.376253861057037 0 0 0
212 0 1 0 13.401853784492776 13.560121993853032 10.999459866653302 0 0 0
73 0 1 0 16.330498191433442 16.14403479079913 11.131678228589488 -1 -1 0

Velocities

5 -4.984690698512323 2.92695326337216 -7.382241394455095
2 -2.2023316942467965 2.2815307265269182 -2.287225773130491
4 2.765222750137237 5.63133263992322 -3.3156636785777245
6 -5.4456458350318275 -10.983158667090912 7.4757252432981085
3 -7.002822990800519 -6.4863200204010285 6.024576997836534
40 -8.89582169948182 7.335216262075893 -7.366245355021925
7 -2.3570274606765866 12.290760078405034 16.544775827314673
10 2.096944511805881 9.257677343789783 -3.272559554150257
9 0.7630296969730578 7.0363447889914585 7.284844549055797
13 -3.99882978276011 -3.794664713648059 7.024010130434159
15 -7.913971751970873 5.863008370660517 -3.722871800943155
11 -1.0522576676514 -12.198737144241592 -1.2719451774531276
48 3.667472744114638 3.823629904351287 -1.0203865732061985
18 10.811420624282942 1.3725563978808955 0.06344025787607956
21 -10.940792971541933 -5.9641670811450975 -10.997405443968333
53 -5.194186577174024 -1.585767402284825 -5.225830693906886
17 0.9588068334637492 -4.383210639654203 -6.210129777744272
20 -3.191348082101984 12.248713735967707 4.257652667580332
23 1.8456267874801722 2.8943854755445937 1.9343697853447086
56 6.661226375536024 -7.992652668668139 16.81975236359512
37 1.5407282841399144 2.3502101998718734 -3.1791078651310043
26 -6.132941497430013 4.615711219177655 -2.711550422677226
27 0.11338825756720258 -11.51006595676402 -0.8595778849814386
25 5.824859805583132 -0.9720593570865024 1.421720233921469
110 -16.48980581716377 -4.454339420162265 -17.62532572647147
8 8.43415214630365 4.170884676044409 -8.030228287109527
28 6.963628800757835 11.92036890659106 -2.092585683438261
65 -8.35275198624713 -16.422297725378904 2.1193005428004206
113 -7.307308719776795 -2.1249872390265026 -4.578054970951172
29 -10.034483342501982 -3.7289281927401143 -6.822456419562903
16 6.851535416249082 8.63284531660043 0.6795010978040151
30 -11.703106779718249 5.527471556051085 -10.847160314215431
14 1.0626024003203174 -1.3997170146715945 13.678158513154054
31 -0.661363024268218 -1.1046113853626558 -12.697431053890222
32 7.855538658797352 0.5328252331796393 0.48879522684753174
22 -9.989921228368585 -3.1608047827501404 6.917900269773605
35 -4.440452082576002 10.18515198085997 -1.3164393377012475
34 -5.703838890279456 11.87112800099677 2.432413335853915
24 -8.304572240394762 3.5242714776038815 -5.776520796559071
36 6.200232169156809 12.15035040214241 3.001172058401782
61 9.377505997069935 -0.014116231933777089 5.673845714844817
118 7.183788339067237 -4.2493404502648024 0.8833378746391072
41 -1.770488489226454 1.7345477200215251 5.864886780872814
42 -8.649487195125035 8.255173976338291 2.9591599225050067
76 -2.730747827117206 7.5655418341497995 -10.972470996695973
43 11.24415984573895 6.190394979483807 11.683228559452548
46 0.35429480340738556 2.1559075191865196 3.440170410401677
44 -4.694131844101349 -15.824240053801093 2.8013604538422805
52 -4.717597245602776 5.294418788411017 -1.60667348498905
49 5.859730555289853 8.929230645009977 -10.41157489941786
51 -9.19835069155287 -2.6749577137192504 -2.085422944072611
50 -5.635003750420164 4.867660970441388 8.05774167754902
84 -3.7997854874491015 -4.332081963753636 -6.823968376476847
54 0.5338514565947584 -2.0576808921743073 -2.859292004086885
57 -12.89488216265296 6.266355490246243 3.9752310428845314
58 -7.789618626658146 -15.916937812626964 -5.986658638251443
89 5.752526722476056 3.313024532946301 -7.334989089798716
38 -12.40975280597329 -2.332570278833856 -11.552630481503678
60 2.445007224456286 4.923763313416145 -7.946177897455246
59 6.4890467404281615 -10.769032229409696 -10.671531091102068
145 -2.4037392437180887 -8.150987527388665 6.662299056109503
62 8.323077092056824 -3.848217147699566 8.571502413716692
63 -6.032905048040446 -0.12374118736719969 0.5789200507649265
97 9.919329515703005 7.864933234520352 -10.448188793674868
149 -4.550439755474871 -5.495256128961584 1.2836876671685689
64 9.488281590128812 2.151305959199491 1.339320617497783
101 4.84573292518612 0.4268126573663939 -5.094729979741986
66 9.884444713187186 1.4695632486261585 1.4608923648370242
68 4.064071719478084 -4.471834107019625 -7.679780194478179
67 13.401386659127805 1.3863888198210177 5.217952723365148
186 3.1151969956756056 -2.4612309248498656 -2.7900789304379483
71 3.986544617921713 -5.807994517214826 9.464139046862167
153 1.0069151315232494 -2.6832340115027913 5.437488315917259
69 -0.7209255298653353 -2.43568589586705 8.692855394848614
70 2.426390437996136 2.389880332616812 9.751082265679965
72 1.970646875878215 5.398223565888495 7.401849286188922
154 -6.7502058157248 -4.611499426980965 3.2505594048028486
190 1.4921341141167075 0.11364531497486584 8.461361494615995
77 4.592457355281727 -2.6048343763728847 -3.792976359904636
74 2.4470614129295254 4.392861193104029 -12.737363689027127
75 8.532589710315179 -1.241763948654777 6.941746600304316
79 -3.715613767112247 1.773898579563358 3.2789491287999164
82 9.543570399867203 5.319495641013315 -6.0062324245932395
80 -3.340029731375807 3.891106305187315 0.7902285893535231
85 -0.3380586425498351 -3.2753587167182947 3.830522604575935
87 3.655144611254202 -7.591386371811855 4.409047123481293
88 10.034472996029688 -0.9274845809733138 8.063028262495349
83 5.051359344796295 2.077975622019974 -6.910407340397923
12 8.732134044638737 -0.27437235137901383 1.1394246148852678
90 -7.136563448298888 5.582729845854295 4.866573956587471
93 -1.2567517271333746 -11.7662583518655 -0.18095727260657973
95 -6.713430941978482 2.885033510454008 -2.7315056714918913
96 -10.162585048709117 3.928881597668983 -1.5564477225782158
92 11.939052170882771 -5.286512848314671 -6.788490558504348
78 -1.6811768745488957 -10.223560437845016 -9.094806746575127
181 -1.2012509460985812 0.5189500257416931 12.00084598591643
99 6.642279726979261 16.784698604200262 -6.578331163997739
98 -6.042315587533714 0.8682286094727931 2.259005296727758
100 9.09386435175898 -8.295617491432246 -10.002287097245938
185 2.8378707366719973 -3.369345004590899 2.871134538946833
103 -4.487282571305768 -2.889424920750058 5.963668875016695
102 2.2745725954403535 8.781495152087109 10.020089701902888
104 4.340461624047302 0.5682989301472783 -5.46260967479189
86 1.658491501003902 -9.428732736501011 5.133200728634756
105 5.9036249566473185 -3.6474489288419383 13.284021516016496
94 -1.283983738404522 -2.7053598285634304 -5.531471138103558
189 -5.658467159885216 4.295738467753278 15.706560811884664
107 3.363573248516597 -1.9807721774969955 -2.3446126980284663
33 -8.282252421540587 -9.168047231424504 4.212062622726246
106 0.5060817004571155 6.731191972844385 1.4288895515807896
108 -0.922349060529785 1.6281757941312858 4.405635871860375
111 8.672891485501369 -7.385598121296871 -4.687711743123799
123 7.48593306981046 -6.001779060280666 2.9885800441950887
121 -0.6592002941342492 1.2190784500728504 -13.871340682389528
109 13.146299830934515 1.1522175919907207 14.081656754716096
146 16.904910681783747 -0.18913808934270826 -5.014388676385902
112 -1.9060913373260535 6.027732309889057 -0.7591355015114104
129 2.9078021407697303 2.3819505632351814 4.130703751636261
150 0.5443357896857384 -3.900347332602545 8.76880762442271
115 -11.309002057491567 -8.106533564442763 0.5755920286498686
131 0.6583232410562981 -2.8918053311579817 0.8725297138020889
116 8.045398371470288 1.5034854059132585 5.827896131299914
114 -11.378094229823498 3.7283712019589874 2.096289477232602
117 5.42177269258849 1.7597708278485398 -2.888495372714753
141 -3.3187027911697875 -1.065513609218477 -3.7272026625811763
119 0.6555316961008433 1.265957623918412 -7.0596477169273655
143 0.1236734157809167 -0.4525459829395654 -2.745168883069294
139 3.3616208317984206 -3.1709781148931637 11.077088908699436
120 -0.10651586307793517 2.8144706997682603 2.958553342955791
125 2.8174767066552997 -4.912713106193502 -3.6777923426396084
126 -12.805815587059609 -3.6378042889564006 0.6945206635354014
124 5.769095931459442 -0.9636606604605729 10.412749156392575
127 5.16816996752629 -0.24630712286624595 -6.7827916525350505
128 8.248980945963895 -4.068357502738719 -3.4435859176894223
130 -0.768531679367195 1.8557964957622908 2.5588094317500762
135 5.833494977092678 10.999518655076896 2.844223305098422
133 -6.840762015412453 -2.9126771144409913 -0.9840712174769857
136 -2.5140823395403125 -2.362671896773823 -3.618840656240723
134 2.386709352378444 1.9549297699380623 4.057103877455942
138 -4.130426269421826 0.19958832985565636 -3.4246280375745988
142 2.4664112001379563 -6.040351756812104 -3.539243378312081
140 -4.646943675891444 0.07507086266490623 -4.246227456918909
144 -1.631878784147411 3.427400604171947 -6.207239893945281
122 -6.301008856204359 0.6621144624375278 -7.79563475176919
19 2.9907902679592158 3.2082037478652023 0.24439667157303036
147 -2.5872666456185813 1.720442778168038 7.763487835963625
159 -9.704308809210616 -0.01936450114188346 2.4796060070985733
157 -1.4931133277478796 2.8505723779845242 0.6401707870415889
182 -10.124431095123922 -3.710887840795153 4.971567400735533
148 -1.4952280741219164 -8.450047184148843 -4.168025620743631
163 13.887683043874546 0.20203506610975305 -1.7458739038203208
165 4.1437119751082445 -7.148125402653518 -6.81704894040583
151 8.224356613448268 7.370247781633993 -1.5531238171050816
167 10.418866889449221 1.357869527470618 -5.47600508793761
152 3.9761009121690147 -9.376714982257202 3.231653009747981
155 1.7635745964903733 -0.45048240764567604 -9.893882893161665
209 -6.990670786538509 -6.38093692693799 -5.166830327348859
173 -10.577938266157217 -4.793141228290478 3.396116574305695
175 2.4355559467320878 -5.97577796672729 -11.679094883458747
156 10.086779056933718 5.00369889144995 -0.023690063535042043
193 1.7244389489155345 16.929889542693637 6.284428675351022
39 -6.84785176153378 -10.544861825837184 -2.7630266478168712
161 1.1719125989177446 4.783053837715294 -10.858216351297607
162 6.879457010901624 3.543346057584726 -1.6595405589119647
160 -4.837045282511741 -11.176548976511366 -17.445122830026467
164 1.7802551339185901 -6.026483061948111 8.208250140615572
166 -7.35100034362704 5.516169318969399 5.608800775973072
45 -4.456043679085796 4.467490563087632 6.2768635537542385
81 -9.45435572473996 -4.829588425005829 11.201003179403434
168 7.7193171419896975 -16.4870480485866 3.864060787323914
170 -0.4030940778594817 2.41807312253357 -4.6338281256358735
171 6.12667764183825 -14.675617522461469 -12.407488601588803
169 2.5947963368720655 -1.5717051421652357 -1.8630220549871506
47 -3.982855450009446 -3.0527204635345773 -10.89146196060982
204 -5.425058028114057 11.558410240894037 3.7768867817544374
177 6.731020543102269 -7.696353618397384 -11.70444748083657
174 3.0750782796446354 10.748066787943923 4.593782074367949
178 0.332772185803421 4.99795590250664 1.6621076832923316
172 3.433486583173317 -0.6485987394460294 3.0164506194475957
55 6.33084490631062 5.744691679459465 -15.321009353081381
179 -9.277055552457115 8.87995473233523 11.342879128982128
180 -3.678843045942867 -7.938865517370615 5.665138672586164
158 -0.9572716110075951 9.492522197695425 -0.20387631380797203
176 -5.730363447026793 3.2432826145586167 8.693560388602403
183 -2.073787931794342 1.3357006836383933 -6.969846379661643
195 -9.756227237401044 -3.840907868952777 2.0181461498451143
197 5.030098915214206 1.0484609862205219 7.008571879141818
201 10.578709394933353 10.972303404013227 -2.634240625600354
184 6.428939388262228 -2.1781122711858516 -11.94673168271057
187 -3.590139004682774 -3.779273302585565 3.079244578873888
203 0.6829501645392463 -0.16277220038381118 -2.3633940047236766
188 -1.2276997696405436 -11.845620993594261 -5.488732884746194
207 -0.9266567648478113 2.4206338781179046 -11.773393744613463
205 -1.2973649576542594 13.542967647935608 14.732500090195868
213 -12.390558691538454 -3.0354729868578048 -10.450413751629704
191 2.6159437705788573 -1.8236741349160528 6.858608144233983
137 -5.429870494715208 8.680180413436025 11.335786592397904
211 -8.376244651567635 4.1602473651356355 -7.688835169253134
192 -0.6558967925885275 3.0962216831313194 -0.336536474065266
215 -7.720730655589135 -2.3793761576343417 6.460820943280537
194 -1.091777149602486 2.7055714398989816 -1.3084754622188095
198 5.683105489263237 -12.795423354362477 0.9847924376404639
1 1.8032014712287383 -7.2733753742386815 4.8216206846817
196 12.855965903333143 -3.1916793396248435 15.14953858126827
199 -1.0972531606146338 5.857156377407436 -2.3368817301082276
202 4.544005067015701 -7.714903416879277 -7.931630868812163
200 -8.820861830702446 -6.43431305609228 9.080558469617513
206 -3.4680540235365047 -3.001391578132792 4.453040233561115
208 -12.571037028650213 4.008801147869027 0.4628442917958324
132 3.227999244191812 -2.588473121602831 -2.1562105273192516
210 -1.266360299203739 3.823366580789165 4.3979445668760295
214 6.766471234789175 -4.880760333860006 -6.345539805478178
91 11.62520185262721 8.240191351590719 15.931940868392749
216 -3.025524693930385 4.151893416222662 -2.42251585733272
212 -6.0054240738989435 -2.6780484328482923 3.914047995263892
73 -3.265277653675378 21.79365086792845 -3.749186815313559
